<?xml version="1.0" ?>

<VTKFile type="UnstructuredGrid" version="0.1" byte_order="BigEndian">

<UnstructuredGrid>

<Piece NumberOfPoints= " 24 " NumberOfCells=" 24 ">

<PointData Vectors="Velocity">

<DataArray type="Float32" Name="Velocity" NumberOfComponents="3" format="ascii">
0.0010673101 -0.0069935643 0
0.0010673103 -0.0069935643 0
0.0010673107 -0.0069935643 0
0.0010673109 -0.0069935643 0
0.0010673112 -0.0069935643 0
0.0010673115 -0.0069935643 0
0.0010673117 -0.0069935643 0
0.0010673117 -0.0069935638 0
0.0010673117 -0.0069935638 0
0.0010673117 -0.0069935634 0
0.0010673117 -0.0069935629 0
0.0010673117 -0.0069935629 0
0.0010673117 -0.0069935624 0
0.0010673115 -0.0069935624 0
0.0010673112 -0.0069935624 0
0.0010673109 -0.0069935624 0
0.0010673107 -0.0069935624 0
0.0010673103 -0.0069935624 0
0.0010673101 -0.0069935624 0
0.0010673101 -0.0069935629 0
0.0010673101 -0.0069935629 0
0.0010673101 -0.0069935634 0
0.0010673101 -0.0069935638 0
0.0010673101 -0.0069935638 0

</DataArray>
</PointData>
<Points>
<DataArray type= "Float32" Name="Position"  NumberOfComponents= "3" format="ascii">
-7.6622528e-06 -9.4438852e-05 0
4.837746e-06 -9.4438852e-05 0
1.7337747e-05 -9.4438852e-05 0
2.9837745e-05 -9.4438852e-05 0
4.233775e-05 -9.4438852e-05 0
5.4837743e-05 -9.4438852e-05 0
6.7337722e-05 -9.4438852e-05 0
6.7337722e-05 -8.1938859e-05 0
6.7337722e-05 -6.9438851e-05 0
6.7337722e-05 -5.6938843e-05 0
6.7337722e-05 -4.4438846e-05 0
6.7337722e-05 -3.1938845e-05 0
6.7337722e-05 -1.9438845e-05 0
5.4837743e-05 -1.9438845e-05 0
4.233775e-05 -1.9438845e-05 0
2.9837745e-05 -1.9438845e-05 0
1.7337747e-05 -1.9438845e-05 0
4.837746e-06 -1.9438845e-05 0
-7.6622528e-06 -1.9438845e-05 0
-7.6622528e-06 -3.1938845e-05 0
-7.6622528e-06 -4.4438846e-05 0
-7.6622528e-06 -5.6938843e-05 0
-7.6622528e-06 -6.9438851e-05 0
-7.6622528e-06 -8.1938859e-05 0

</DataArray>
</Points>
<Cells>
<DataArray type="Int32" Name="connectivity" format="ascii">
0 1 2 3 4 5 6 7 8 9 10 11 12 13 14 15 16 17 18 19 20 21 22 23 
</DataArray>

<DataArray type="Int32" Name="offsets" format="ascii">
1 2 3 4 5 6 7 8 9 10 11 12 13 14 15 16 17 18 19 20 21 22 23 24 
</DataArray>

<DataArray type="Int32" Name="types" format="ascii">
1 1 1 1 1 1 1 1 1 1 1 1 1 1 1 1 1 1 1 1 1 1 1 1 
</DataArray>
</Cells>
</Piece>
</UnstructuredGrid>
</VTKFile>