<?xml version="1.0" ?>

<VTKFile type="UnstructuredGrid" version="0.1" byte_order="BigEndian">

<UnstructuredGrid>

<Piece NumberOfPoints= " 24 " NumberOfCells=" 24 ">

<PointData Vectors="Velocity">

<DataArray type="Float32" Name="Velocity" NumberOfComponents="3" format="ascii">
0.0011149909 -0.0036555342 0
0.0011149911 -0.0036555342 0
0.0011149913 -0.0036555342 0
0.0011149915 -0.0036555342 0
0.0011149917 -0.0036555342 0
0.0011149918 -0.0036555342 0
0.0011149921 -0.0036555342 0
0.0011149921 -0.003655534 0
0.0011149921 -0.0036555338 0
0.0011149921 -0.0036555335 0
0.0011149921 -0.0036555333 0
0.0011149921 -0.0036555331 0
0.0011149921 -0.0036555328 0
0.0011149918 -0.0036555328 0
0.0011149917 -0.0036555328 0
0.0011149915 -0.0036555328 0
0.0011149913 -0.0036555328 0
0.0011149911 -0.0036555328 0
0.0011149909 -0.0036555328 0
0.0011149909 -0.0036555331 0
0.0011149909 -0.0036555333 0
0.0011149909 -0.0036555335 0
0.0011149909 -0.0036555338 0
0.0011149909 -0.003655534 0

</DataArray>
</PointData>
<Points>
<DataArray type= "Float32" Name="Position"  NumberOfComponents= "3" format="ascii">
-8.7443586e-06 -8.8994871e-05 0
3.7556401e-06 -8.8994871e-05 0
1.6255641e-05 -8.8994871e-05 0
2.875564e-05 -8.8994871e-05 0
4.1255647e-05 -8.8994871e-05 0
5.3755641e-05 -8.8994871e-05 0
6.6255612e-05 -8.8994871e-05 0
6.6255612e-05 -7.6494878e-05 0
6.6255612e-05 -6.399487e-05 0
6.6255612e-05 -5.1494859e-05 0
6.6255612e-05 -3.8994862e-05 0
6.6255612e-05 -2.6494859e-05 0
6.6255612e-05 -1.3994861e-05 0
5.3755641e-05 -1.3994861e-05 0
4.1255647e-05 -1.3994861e-05 0
2.875564e-05 -1.3994861e-05 0
1.6255641e-05 -1.3994861e-05 0
3.7556401e-06 -1.3994861e-05 0
-8.7443586e-06 -1.3994861e-05 0
-8.7443586e-06 -2.6494859e-05 0
-8.7443586e-06 -3.8994862e-05 0
-8.7443586e-06 -5.1494859e-05 0
-8.7443586e-06 -6.399487e-05 0
-8.7443586e-06 -7.6494878e-05 0

</DataArray>
</Points>
<Cells>
<DataArray type="Int32" Name="connectivity" format="ascii">
0 1 2 3 4 5 6 7 8 9 10 11 12 13 14 15 16 17 18 19 20 21 22 23 
</DataArray>

<DataArray type="Int32" Name="offsets" format="ascii">
1 2 3 4 5 6 7 8 9 10 11 12 13 14 15 16 17 18 19 20 21 22 23 24 
</DataArray>

<DataArray type="Int32" Name="types" format="ascii">
1 1 1 1 1 1 1 1 1 1 1 1 1 1 1 1 1 1 1 1 1 1 1 1 
</DataArray>
</Cells>
</Piece>
</UnstructuredGrid>
</VTKFile>