<?xml version="1.0" ?>

<VTKFile type="UnstructuredGrid" version="0.1" byte_order="BigEndian">

<UnstructuredGrid>

<Piece NumberOfPoints= " 24 " NumberOfCells=" 24 ">

<PointData Vectors="Velocity">

<DataArray type="Float32" Name="Velocity" NumberOfComponents="3" format="ascii">
0.0012441928 0.00062698423 0
0.0012441929 0.00062698423 0
0.0012441929 0.00062698423 0
0.0012441931 0.00062698423 0
0.0012441932 0.00062698423 0
0.0012441932 0.00062698423 0
0.0012441933 0.00062698423 0
0.0012441933 0.00062698434 0
0.0012441933 0.0006269844 0
0.0012441933 0.00062698446 0
0.0012441933 0.00062698452 0
0.0012441933 0.00062698458 0
0.0012441933 0.00062698469 0
0.0012441932 0.00062698469 0
0.0012441932 0.00062698469 0
0.0012441931 0.00062698469 0
0.0012441929 0.00062698469 0
0.0012441929 0.00062698469 0
0.0012441928 0.00062698469 0
0.0012441928 0.00062698458 0
0.0012441928 0.00062698452 0
0.0012441928 0.00062698446 0
0.0012441928 0.0006269844 0
0.0012441928 0.00062698434 0

</DataArray>
</PointData>
<Points>
<DataArray type= "Float32" Name="Position"  NumberOfComponents= "3" format="ascii">
-1.1126871e-05 -8.6384265e-05 0
1.3731278e-06 -8.6384265e-05 0
1.3873128e-05 -8.6384265e-05 0
2.6373127e-05 -8.6384265e-05 0
3.8873135e-05 -8.6384265e-05 0
5.1373128e-05 -8.6384265e-05 0
6.3873114e-05 -8.6384265e-05 0
6.3873114e-05 -7.3884272e-05 0
6.3873114e-05 -6.1384264e-05 0
6.3873114e-05 -4.8884249e-05 0
6.3873114e-05 -3.6384252e-05 0
6.3873114e-05 -2.3884249e-05 0
6.3873114e-05 -1.1384251e-05 0
5.1373128e-05 -1.1384251e-05 0
3.8873135e-05 -1.1384251e-05 0
2.6373127e-05 -1.1384251e-05 0
1.3873128e-05 -1.1384251e-05 0
1.3731278e-06 -1.1384251e-05 0
-1.1126871e-05 -1.1384251e-05 0
-1.1126871e-05 -2.3884249e-05 0
-1.1126871e-05 -3.6384252e-05 0
-1.1126871e-05 -4.8884249e-05 0
-1.1126871e-05 -6.1384264e-05 0
-1.1126871e-05 -7.3884272e-05 0

</DataArray>
</Points>
<Cells>
<DataArray type="Int32" Name="connectivity" format="ascii">
0 1 2 3 4 5 6 7 8 9 10 11 12 13 14 15 16 17 18 19 20 21 22 23 
</DataArray>

<DataArray type="Int32" Name="offsets" format="ascii">
1 2 3 4 5 6 7 8 9 10 11 12 13 14 15 16 17 18 19 20 21 22 23 24 
</DataArray>

<DataArray type="Int32" Name="types" format="ascii">
1 1 1 1 1 1 1 1 1 1 1 1 1 1 1 1 1 1 1 1 1 1 1 1 
</DataArray>
</Cells>
</Piece>
</UnstructuredGrid>
</VTKFile>