<?xml version="1.0" ?>

<VTKFile type="UnstructuredGrid" version="0.1" byte_order="BigEndian">

<UnstructuredGrid>

<Piece NumberOfPoints= " 24 " NumberOfCells=" 24 ">

<PointData Vectors="Velocity">

<DataArray type="Float32" Name="Velocity" NumberOfComponents="3" format="ascii">
0.0010795506 -0.018638443 0
0.0010795511 -0.018638443 0
0.0010795515 -0.018638443 0
0.001079552 -0.018638443 0
0.0010795525 -0.018638443 0
0.0010795529 -0.018638443 0
0.0010795534 -0.018638443 0
0.0010795534 -0.018638441 0
0.0010795534 -0.018638441 0
0.0010795534 -0.018638441 0
0.0010795534 -0.018638441 0
0.0010795534 -0.018638441 0
0.0010795534 -0.018638439 0
0.0010795529 -0.018638439 0
0.0010795525 -0.018638439 0
0.001079552 -0.018638439 0
0.0010795515 -0.018638439 0
0.0010795511 -0.018638439 0
0.0010795506 -0.018638439 0
0.0010795506 -0.018638441 0
0.0010795506 -0.018638441 0
0.0010795506 -0.018638441 0
0.0010795506 -0.018638441 0
0.0010795506 -0.018638441 0

</DataArray>
</PointData>
<Points>
<DataArray type= "Float32" Name="Position"  NumberOfComponents= "3" format="ascii">
-4.44135e-06 -0.00013324455 0
8.0586487e-06 -0.00013324455 0
2.0558649e-05 -0.00013324455 0
3.3058648e-05 -0.00013324455 0
4.5558652e-05 -0.00013324455 0
5.8058646e-05 -0.00013324455 0
7.0558635e-05 -0.00013324455 0
7.0558635e-05 -0.00012074457 0
7.0558635e-05 -0.00010824456 0
7.0558635e-05 -9.5744545e-05 0
7.0558635e-05 -8.3244551e-05 0
7.0558635e-05 -7.0744551e-05 0
7.0558635e-05 -5.8244546e-05 0
5.8058646e-05 -5.8244546e-05 0
4.5558652e-05 -5.8244546e-05 0
3.3058648e-05 -5.8244546e-05 0
2.0558649e-05 -5.8244546e-05 0
8.0586487e-06 -5.8244546e-05 0
-4.44135e-06 -5.8244546e-05 0
-4.44135e-06 -7.0744551e-05 0
-4.44135e-06 -8.3244551e-05 0
-4.44135e-06 -9.5744545e-05 0
-4.44135e-06 -0.00010824456 0
-4.44135e-06 -0.00012074457 0

</DataArray>
</Points>
<Cells>
<DataArray type="Int32" Name="connectivity" format="ascii">
0 1 2 3 4 5 6 7 8 9 10 11 12 13 14 15 16 17 18 19 20 21 22 23 
</DataArray>

<DataArray type="Int32" Name="offsets" format="ascii">
1 2 3 4 5 6 7 8 9 10 11 12 13 14 15 16 17 18 19 20 21 22 23 24 
</DataArray>

<DataArray type="Int32" Name="types" format="ascii">
1 1 1 1 1 1 1 1 1 1 1 1 1 1 1 1 1 1 1 1 1 1 1 1 
</DataArray>
</Cells>
</Piece>
</UnstructuredGrid>
</VTKFile>