<?xml version="1.0" ?>

<VTKFile type="UnstructuredGrid" version="0.1" byte_order="BigEndian">

<UnstructuredGrid>

<Piece NumberOfPoints= " 24 " NumberOfCells=" 24 ">

<PointData Vectors="Velocity">

<DataArray type="Float32" Name="Velocity" NumberOfComponents="3" format="ascii">
0.0010836307 -0.022594068 0
0.0010836313 -0.022594068 0
0.0010836318 -0.022594068 0
0.0010836323 -0.022594068 0
0.0010836329 -0.022594068 0
0.0010836334 -0.022594068 0
0.001083634 -0.022594068 0
0.001083634 -0.022594068 0
0.001083634 -0.022594066 0
0.001083634 -0.022594066 0
0.001083634 -0.022594066 0
0.001083634 -0.022594064 0
0.001083634 -0.022594064 0
0.0010836334 -0.022594064 0
0.0010836329 -0.022594064 0
0.0010836323 -0.022594064 0
0.0010836318 -0.022594064 0
0.0010836313 -0.022594064 0
0.0010836307 -0.022594064 0
0.0010836307 -0.022594064 0
0.0010836307 -0.022594066 0
0.0010836307 -0.022594066 0
0.0010836307 -0.022594066 0
0.0010836307 -0.022594068 0

</DataArray>
</PointData>
<Points>
<DataArray type= "Float32" Name="Position"  NumberOfComponents= "3" format="ascii">
-3.3595534e-06 -0.00015405857 0
9.1404454e-06 -0.00015405857 0
2.1640446e-05 -0.00015405857 0
3.4140445e-05 -0.00015405857 0
4.6640449e-05 -0.00015405857 0
5.9140442e-05 -0.00015405857 0
7.1640447e-05 -0.00015405857 0
7.1640447e-05 -0.00014155859 0
7.1640447e-05 -0.00012905858 0
7.1640447e-05 -0.00011655858 0
7.1640447e-05 -0.00010405858 0
7.1640447e-05 -9.1558584e-05 0
7.1640447e-05 -7.9058576e-05 0
5.9140442e-05 -7.9058576e-05 0
4.6640449e-05 -7.9058576e-05 0
3.4140445e-05 -7.9058576e-05 0
2.1640446e-05 -7.9058576e-05 0
9.1404454e-06 -7.9058576e-05 0
-3.3595534e-06 -7.9058576e-05 0
-3.3595534e-06 -9.1558584e-05 0
-3.3595534e-06 -0.00010405858 0
-3.3595534e-06 -0.00011655858 0
-3.3595534e-06 -0.00012905858 0
-3.3595534e-06 -0.00014155859 0

</DataArray>
</Points>
<Cells>
<DataArray type="Int32" Name="connectivity" format="ascii">
0 1 2 3 4 5 6 7 8 9 10 11 12 13 14 15 16 17 18 19 20 21 22 23 
</DataArray>

<DataArray type="Int32" Name="offsets" format="ascii">
1 2 3 4 5 6 7 8 9 10 11 12 13 14 15 16 17 18 19 20 21 22 23 24 
</DataArray>

<DataArray type="Int32" Name="types" format="ascii">
1 1 1 1 1 1 1 1 1 1 1 1 1 1 1 1 1 1 1 1 1 1 1 1 
</DataArray>
</Cells>
</Piece>
</UnstructuredGrid>
</VTKFile>