<?xml version="1.0" ?>

<VTKFile type="UnstructuredGrid" version="0.1" byte_order="BigEndian">

<UnstructuredGrid>

<Piece NumberOfPoints= " 24 " NumberOfCells=" 24 ">

<PointData Vectors="Velocity">

<DataArray type="Float32" Name="Velocity" NumberOfComponents="3" format="ascii">
0.0010713902 -0.010753513 0
0.0010713906 -0.010753513 0
0.0010713909 -0.010753513 0
0.0010713913 -0.010753513 0
0.0010713916 -0.010753513 0
0.001071392 -0.010753513 0
0.0010713923 -0.010753513 0
0.0010713923 -0.010753513 0
0.0010713923 -0.010753512 0
0.0010713923 -0.010753512 0
0.0010713923 -0.010753512 0
0.0010713923 -0.010753511 0
0.0010713923 -0.010753511 0
0.001071392 -0.010753511 0
0.0010713916 -0.010753511 0
0.0010713913 -0.010753511 0
0.0010713909 -0.010753511 0
0.0010713906 -0.010753511 0
0.0010713902 -0.010753511 0
0.0010713902 -0.010753511 0
0.0010713902 -0.010753512 0
0.0010713902 -0.010753512 0
0.0010713902 -0.010753512 0
0.0010713902 -0.010753513 0

</DataArray>
</PointData>
<Points>
<DataArray type= "Float32" Name="Position"  NumberOfComponents= "3" format="ascii">
-6.5926979e-06 -0.00010347785 0
5.9073009e-06 -0.00010347785 0
1.8407301e-05 -0.00010347785 0
3.09073e-05 -0.00010347785 0
4.3407304e-05 -0.00010347785 0
5.5907298e-05 -0.00010347785 0
6.840728e-05 -0.00010347785 0
6.840728e-05 -9.0977861e-05 0
6.840728e-05 -7.8477853e-05 0
6.840728e-05 -6.5977838e-05 0
6.840728e-05 -5.3477841e-05 0
6.840728e-05 -4.097784e-05 0
6.840728e-05 -2.847784e-05 0
5.5907298e-05 -2.847784e-05 0
4.3407304e-05 -2.847784e-05 0
3.09073e-05 -2.847784e-05 0
1.8407301e-05 -2.847784e-05 0
5.9073009e-06 -2.847784e-05 0
-6.5926979e-06 -2.847784e-05 0
-6.5926979e-06 -4.097784e-05 0
-6.5926979e-06 -5.3477841e-05 0
-6.5926979e-06 -6.5977838e-05 0
-6.5926979e-06 -7.8477853e-05 0
-6.5926979e-06 -9.0977861e-05 0

</DataArray>
</Points>
<Cells>
<DataArray type="Int32" Name="connectivity" format="ascii">
0 1 2 3 4 5 6 7 8 9 10 11 12 13 14 15 16 17 18 19 20 21 22 23 
</DataArray>

<DataArray type="Int32" Name="offsets" format="ascii">
1 2 3 4 5 6 7 8 9 10 11 12 13 14 15 16 17 18 19 20 21 22 23 24 
</DataArray>

<DataArray type="Int32" Name="types" format="ascii">
1 1 1 1 1 1 1 1 1 1 1 1 1 1 1 1 1 1 1 1 1 1 1 1 
</DataArray>
</Cells>
</Piece>
</UnstructuredGrid>
</VTKFile>