<?xml version="1.0" ?>

<VTKFile type="UnstructuredGrid" version="0.1" byte_order="BigEndian">

<UnstructuredGrid>

<Piece NumberOfPoints= " 24 " NumberOfCells=" 24 ">

<PointData Vectors="Velocity">

<DataArray type="Float32" Name="Velocity" NumberOfComponents="3" format="ascii">
0.001087711 -0.026549693 0
0.0010877115 -0.026549693 0
0.0010877121 -0.026549693 0
0.0010877127 -0.026549693 0
0.0010877133 -0.026549693 0
0.0010877139 -0.026549693 0
0.0010877145 -0.026549693 0
0.0010877145 -0.026549693 0
0.0010877145 -0.026549691 0
0.0010877145 -0.026549691 0
0.0010877145 -0.026549691 0
0.0010877145 -0.026549689 0
0.0010877145 -0.026549689 0
0.0010877139 -0.026549689 0
0.0010877133 -0.026549689 0
0.0010877127 -0.026549689 0
0.0010877121 -0.026549689 0
0.0010877115 -0.026549689 0
0.001087711 -0.026549689 0
0.001087711 -0.026549689 0
0.001087711 -0.026549691 0
0.001087711 -0.026549691 0
0.001087711 -0.026549691 0
0.001087711 -0.026549693 0

</DataArray>
</PointData>
<Points>
<DataArray type= "Float32" Name="Position"  NumberOfComponents= "3" format="ascii">
-2.2736749e-06 -0.00017882824 0
1.0226324e-05 -0.00017882824 0
2.2726324e-05 -0.00017882824 0
3.5226323e-05 -0.00017882824 0
4.7726327e-05 -0.00017882824 0
6.0226321e-05 -0.00017882824 0
7.272634e-05 -0.00017882824 0
7.272634e-05 -0.00016632826 0
7.272634e-05 -0.00015382825 0
7.272634e-05 -0.00014132824 0
7.272634e-05 -0.00012882825 0
7.272634e-05 -0.00011632825 0
7.272634e-05 -0.00010382824 0
6.0226321e-05 -0.00010382824 0
4.7726327e-05 -0.00010382824 0
3.5226323e-05 -0.00010382824 0
2.2726324e-05 -0.00010382824 0
1.0226324e-05 -0.00010382824 0
-2.2736749e-06 -0.00010382824 0
-2.2736749e-06 -0.00011632825 0
-2.2736749e-06 -0.00012882825 0
-2.2736749e-06 -0.00014132824 0
-2.2736749e-06 -0.00015382825 0
-2.2736749e-06 -0.00016632826 0

</DataArray>
</Points>
<Cells>
<DataArray type="Int32" Name="connectivity" format="ascii">
0 1 2 3 4 5 6 7 8 9 10 11 12 13 14 15 16 17 18 19 20 21 22 23 
</DataArray>

<DataArray type="Int32" Name="offsets" format="ascii">
1 2 3 4 5 6 7 8 9 10 11 12 13 14 15 16 17 18 19 20 21 22 23 24 
</DataArray>

<DataArray type="Int32" Name="types" format="ascii">
1 1 1 1 1 1 1 1 1 1 1 1 1 1 1 1 1 1 1 1 1 1 1 1 
</DataArray>
</Cells>
</Piece>
</UnstructuredGrid>
</VTKFile>