<?xml version="1.0" ?>

<VTKFile type="UnstructuredGrid" version="0.1" byte_order="BigEndian">

<UnstructuredGrid>

<Piece NumberOfPoints= " 24 " NumberOfCells=" 24 ">

<PointData Vectors="Velocity">

<DataArray type="Float32" Name="Velocity" NumberOfComponents="3" format="ascii">
0.0010754705 -0.014682857 0
0.0010754708 -0.014682857 0
0.0010754713 -0.014682857 0
0.0010754716 -0.014682857 0
0.001075472 -0.014682857 0
0.0010754724 -0.014682857 0
0.0010754728 -0.014682857 0
0.0010754728 -0.014682857 0
0.0010754728 -0.014682856 0
0.0010754728 -0.014682856 0
0.0010754728 -0.014682856 0
0.0010754728 -0.014682855 0
0.0010754728 -0.014682855 0
0.0010754724 -0.014682855 0
0.001075472 -0.014682855 0
0.0010754716 -0.014682855 0
0.0010754713 -0.014682855 0
0.0010754708 -0.014682855 0
0.0010754705 -0.014682855 0
0.0010754705 -0.014682855 0
0.0010754705 -0.014682856 0
0.0010754705 -0.014682856 0
0.0010754705 -0.014682856 0
0.0010754705 -0.014682857 0

</DataArray>
</PointData>
<Points>
<DataArray type= "Float32" Name="Position"  NumberOfComponents= "3" format="ascii">
-5.5190649e-06 -0.00011638615 0
6.9809339e-06 -0.00011638615 0
1.9480934e-05 -0.00011638615 0
3.1980933e-05 -0.00011638615 0
4.4480938e-05 -0.00011638615 0
5.6980931e-05 -0.00011638615 0
6.9480921e-05 -0.00011638615 0
6.9480921e-05 -0.00010388615 0
6.9480921e-05 -9.1386144e-05 0
6.9480921e-05 -7.8886129e-05 0
6.9480921e-05 -6.6386136e-05 0
6.9480921e-05 -5.3886131e-05 0
6.9480921e-05 -4.1386131e-05 0
5.6980931e-05 -4.1386131e-05 0
4.4480938e-05 -4.1386131e-05 0
3.1980933e-05 -4.1386131e-05 0
1.9480934e-05 -4.1386131e-05 0
6.9809339e-06 -4.1386131e-05 0
-5.5190649e-06 -4.1386131e-05 0
-5.5190649e-06 -5.3886131e-05 0
-5.5190649e-06 -6.6386136e-05 0
-5.5190649e-06 -7.8886129e-05 0
-5.5190649e-06 -9.1386144e-05 0
-5.5190649e-06 -0.00010388615 0

</DataArray>
</Points>
<Cells>
<DataArray type="Int32" Name="connectivity" format="ascii">
0 1 2 3 4 5 6 7 8 9 10 11 12 13 14 15 16 17 18 19 20 21 22 23 
</DataArray>

<DataArray type="Int32" Name="offsets" format="ascii">
1 2 3 4 5 6 7 8 9 10 11 12 13 14 15 16 17 18 19 20 21 22 23 24 
</DataArray>

<DataArray type="Int32" Name="types" format="ascii">
1 1 1 1 1 1 1 1 1 1 1 1 1 1 1 1 1 1 1 1 1 1 1 1 
</DataArray>
</Cells>
</Piece>
</UnstructuredGrid>
</VTKFile>