<?xml version="1.0" ?>

<VTKFile type="UnstructuredGrid" version="0.1" byte_order="BigEndian">

<UnstructuredGrid>

<Piece NumberOfPoints= " 24 " NumberOfCells=" 24 ">

<PointData Vectors="Velocity">

<DataArray type="Float32" Name="Velocity" NumberOfComponents="3" format="ascii">
0.0012054153 -0.0010378102 0
0.0012054156 -0.0010378102 0
0.0012054157 -0.0010378102 0
0.0012054158 -0.0010378102 0
0.0012054159 -0.0010378102 0
0.001205416 -0.0010378102 0
0.0012054163 -0.0010378102 0
0.0012054163 -0.00103781 0
0.0012054163 -0.0010378099 0
0.0012054163 -0.0010378098 0
0.0012054163 -0.0010378096 0
0.0012054163 -0.0010378095 0
0.0012054163 -0.0010378093 0
0.001205416 -0.0010378093 0
0.0012054159 -0.0010378093 0
0.0012054158 -0.0010378093 0
0.0012054157 -0.0010378093 0
0.0012054156 -0.0010378093 0
0.0012054153 -0.0010378093 0
0.0012054153 -0.0010378095 0
0.0012054153 -0.0010378096 0
0.0012054153 -0.0010378098 0
0.0012054153 -0.0010378099 0
0.0012054153 -0.00103781 0

</DataArray>
</PointData>
<Points>
<DataArray type= "Float32" Name="Position"  NumberOfComponents= "3" format="ascii">
-9.8990677e-06 -8.6587985e-05 0
2.6009311e-06 -8.6587985e-05 0
1.5100931e-05 -8.6587985e-05 0
2.760093e-05 -8.6587985e-05 0
4.0100938e-05 -8.6587985e-05 0
5.2600932e-05 -8.6587985e-05 0
6.510091e-05 -8.6587985e-05 0
6.510091e-05 -7.4087991e-05 0
6.510091e-05 -6.1587984e-05 0
6.510091e-05 -4.9087968e-05 0
6.510091e-05 -3.6587971e-05 0
6.510091e-05 -2.4087969e-05 0
6.510091e-05 -1.158797e-05 0
5.2600932e-05 -1.158797e-05 0
4.0100938e-05 -1.158797e-05 0
2.760093e-05 -1.158797e-05 0
1.5100931e-05 -1.158797e-05 0
2.6009311e-06 -1.158797e-05 0
-9.8990677e-06 -1.158797e-05 0
-9.8990677e-06 -2.4087969e-05 0
-9.8990677e-06 -3.6587971e-05 0
-9.8990677e-06 -4.9087968e-05 0
-9.8990677e-06 -6.1587984e-05 0
-9.8990677e-06 -7.4087991e-05 0

</DataArray>
</Points>
<Cells>
<DataArray type="Int32" Name="connectivity" format="ascii">
0 1 2 3 4 5 6 7 8 9 10 11 12 13 14 15 16 17 18 19 20 21 22 23 
</DataArray>

<DataArray type="Int32" Name="offsets" format="ascii">
1 2 3 4 5 6 7 8 9 10 11 12 13 14 15 16 17 18 19 20 21 22 23 24 
</DataArray>

<DataArray type="Int32" Name="types" format="ascii">
1 1 1 1 1 1 1 1 1 1 1 1 1 1 1 1 1 1 1 1 1 1 1 1 
</DataArray>
</Cells>
</Piece>
</UnstructuredGrid>
</VTKFile>