<?xml version="1.0" ?>

<VTKFile type="UnstructuredGrid" version="0.1" byte_order="BigEndian">

<UnstructuredGrid>

<Piece NumberOfPoints= " 24 " NumberOfCells=" 24 ">

<PointData Vectors="Velocity">

<DataArray type="Float32" Name="Velocity" NumberOfComponents="3" format="ascii">
0.012499996 0.012499996 0
0.012499997 0.012499996 0
0.012499998 0.012499996 0
0.0125 0.012499996 0
0.012500002 0.012499996 0
0.012500003 0.012499996 0
0.012500005 0.012499996 0
0.012500005 0.012499997 0
0.012500005 0.012499998 0
0.012500005 0.0125 0
0.012500005 0.012500002 0
0.012500005 0.012500003 0
0.012500005 0.012500005 0
0.012500003 0.012500005 0
0.012500002 0.012500005 0
0.0125 0.012500005 0
0.012499998 0.012500005 0
0.012499997 0.012500005 0
0.012499996 0.012500005 0
0.012499996 0.012500003 0
0.012499996 0.012500002 0
0.012499996 0.0125 0
0.012499996 0.012499998 0
0.012499996 0.012499997 0

</DataArray>
</PointData>
<Points>
<DataArray type= "Float32" Name="Position"  NumberOfComponents= "3" format="ascii">
0.00030125031 0.00022624969 0
0.00031375029 0.00022624969 0
0.0003262503 0.00022624969 0
0.00033875031 0.00022624969 0
0.00035125046 0.00022624969 0
0.00036375067 0.00022624969 0
0.00037625089 0.00022624969 0
0.00037625089 0.00023874971 0
0.00037625089 0.00025124973 0
0.00037625089 0.00026374974 0
0.00037625089 0.00027624989 0
0.00037625089 0.0002887501 0
0.00037625089 0.00030125026 0
0.00036375067 0.00030125026 0
0.00035125046 0.00030125026 0
0.00033875031 0.00030125026 0
0.0003262503 0.00030125026 0
0.00031375029 0.00030125026 0
0.00030125031 0.00030125026 0
0.00030125031 0.0002887501 0
0.00030125031 0.00027624989 0
0.00030125031 0.00026374974 0
0.00030125031 0.00025124973 0
0.00030125031 0.00023874971 0

</DataArray>
</Points>
<Cells>
<DataArray type="Int32" Name="connectivity" format="ascii">
0 1 2 3 4 5 6 7 8 9 10 11 12 13 14 15 16 17 18 19 20 21 22 23 
</DataArray>

<DataArray type="Int32" Name="offsets" format="ascii">
1 2 3 4 5 6 7 8 9 10 11 12 13 14 15 16 17 18 19 20 21 22 23 24 
</DataArray>

<DataArray type="Int32" Name="types" format="ascii">
1 1 1 1 1 1 1 1 1 1 1 1 1 1 1 1 1 1 1 1 1 1 1 1 
</DataArray>
</Cells>
</Piece>
</UnstructuredGrid>
</VTKFile>