<?xml version="1.0" ?>

<VTKFile type="UnstructuredGrid" version="0.1" byte_order="BigEndian">

<UnstructuredGrid>

<Piece NumberOfPoints= " 24 " NumberOfCells=" 24 ">

<PointData Vectors="Velocity">

<DataArray type="Float32" Name="Velocity" NumberOfComponents="3" format="ascii">
0.012499998 0.012499998 0
0.012499998 0.012499998 0
0.012499999 0.012499998 0
0.0125 0.012499998 0
0.012500001 0.012499998 0
0.012500002 0.012499998 0
0.012500002 0.012499998 0
0.012500002 0.012499998 0
0.012500002 0.012499999 0
0.012500002 0.0125 0
0.012500002 0.012500001 0
0.012500002 0.012500002 0
0.012500002 0.012500002 0
0.012500002 0.012500002 0
0.012500001 0.012500002 0
0.0125 0.012500002 0
0.012499999 0.012500002 0
0.012499998 0.012500002 0
0.012499998 0.012500002 0
0.012499998 0.012500002 0
0.012499998 0.012500001 0
0.012499998 0.0125 0
0.012499998 0.012499999 0
0.012499998 0.012499998 0

</DataArray>
</PointData>
<Points>
<DataArray type= "Float32" Name="Position"  NumberOfComponents= "3" format="ascii">
0.0001262499 5.1249976e-05 0
0.00013874991 5.1249976e-05 0
0.0001512499 5.1249976e-05 0
0.00016374991 5.1249976e-05 0
0.00017624995 5.1249976e-05 0
0.00018874998 5.1249976e-05 0
0.00020125005 5.1249976e-05 0
0.00020125005 6.3749998e-05 0
0.00020125005 7.6250028e-05 0
0.00020125005 8.8750014e-05 0
0.00020125005 0.00010125001 0
0.00020125005 0.00011374997 0
0.00020125005 0.00012624994 0
0.00018874998 0.00012624994 0
0.00017624995 0.00012624994 0
0.00016374991 0.00012624994 0
0.0001512499 0.00012624994 0
0.00013874991 0.00012624994 0
0.0001262499 0.00012624994 0
0.0001262499 0.00011374997 0
0.0001262499 0.00010125001 0
0.0001262499 8.8750014e-05 0
0.0001262499 7.6250028e-05 0
0.0001262499 6.3749998e-05 0

</DataArray>
</Points>
<Cells>
<DataArray type="Int32" Name="connectivity" format="ascii">
0 1 2 3 4 5 6 7 8 9 10 11 12 13 14 15 16 17 18 19 20 21 22 23 
</DataArray>

<DataArray type="Int32" Name="offsets" format="ascii">
1 2 3 4 5 6 7 8 9 10 11 12 13 14 15 16 17 18 19 20 21 22 23 24 
</DataArray>

<DataArray type="Int32" Name="types" format="ascii">
1 1 1 1 1 1 1 1 1 1 1 1 1 1 1 1 1 1 1 1 1 1 1 1 
</DataArray>
</Cells>
</Piece>
</UnstructuredGrid>
</VTKFile>