<?xml version="1.0" ?>

<VTKFile type="UnstructuredGrid" version="0.1" byte_order="BigEndian">

<UnstructuredGrid>

<Piece NumberOfPoints= " 24 " NumberOfCells=" 24 ">

<PointData Vectors="Velocity">

<DataArray type="Float32" Name="Velocity" NumberOfComponents="3" format="ascii">
0.012499997 0.012499997 0
0.012499998 0.012499997 0
0.012499999 0.012499997 0
0.0125 0.012499997 0
0.012500001 0.012499997 0
0.012500002 0.012499997 0
0.012500003 0.012499997 0
0.012500003 0.012499998 0
0.012500003 0.012499999 0
0.012500003 0.0125 0
0.012500003 0.012500001 0
0.012500003 0.012500002 0
0.012500003 0.012500003 0
0.012500002 0.012500003 0
0.012500001 0.012500003 0
0.0125 0.012500003 0
0.012499999 0.012500003 0
0.012499998 0.012500003 0
0.012499997 0.012500003 0
0.012499997 0.012500002 0
0.012499997 0.012500001 0
0.012499997 0.0125 0
0.012499997 0.012499999 0
0.012499997 0.012499998 0

</DataArray>
</PointData>
<Points>
<DataArray type= "Float32" Name="Position"  NumberOfComponents= "3" format="ascii">
0.0001512498 7.625002e-05 0
0.00016374981 7.625002e-05 0
0.0001762498 7.625002e-05 0
0.00018874981 7.625002e-05 0
0.00020124984 7.625002e-05 0
0.00021374988 7.625002e-05 0
0.00022624995 7.625002e-05 0
0.00022624995 8.8750043e-05 0
0.00022624995 0.00010125007 0
0.00022624995 0.00011375006 0
0.00022624995 0.00012625006 0
0.00022624995 0.0001387501 0
0.00022624995 0.00015125013 0
0.00021374988 0.00015125013 0
0.00020124984 0.00015125013 0
0.00018874981 0.00015125013 0
0.0001762498 0.00015125013 0
0.00016374981 0.00015125013 0
0.0001512498 0.00015125013 0
0.0001512498 0.0001387501 0
0.0001512498 0.00012625006 0
0.0001512498 0.00011375006 0
0.0001512498 0.00010125007 0
0.0001512498 8.8750043e-05 0

</DataArray>
</Points>
<Cells>
<DataArray type="Int32" Name="connectivity" format="ascii">
0 1 2 3 4 5 6 7 8 9 10 11 12 13 14 15 16 17 18 19 20 21 22 23 
</DataArray>

<DataArray type="Int32" Name="offsets" format="ascii">
1 2 3 4 5 6 7 8 9 10 11 12 13 14 15 16 17 18 19 20 21 22 23 24 
</DataArray>

<DataArray type="Int32" Name="types" format="ascii">
1 1 1 1 1 1 1 1 1 1 1 1 1 1 1 1 1 1 1 1 1 1 1 1 
</DataArray>
</Cells>
</Piece>
</UnstructuredGrid>
</VTKFile>