<?xml version="1.0" ?>

<VTKFile type="UnstructuredGrid" version="0.1" byte_order="BigEndian">

<UnstructuredGrid>

<Piece NumberOfPoints= " 24 " NumberOfCells=" 24 ">

<PointData Vectors="Velocity">

<DataArray type="Float32" Name="Velocity" NumberOfComponents="3" format="ascii">
0.012499999 0.012499999 0
0.012499999 0.012499999 0
0.0125 0.012499999 0
0.0125 0.012499999 0
0.0125 0.012499999 0
0.012500001 0.012499999 0
0.012500001 0.012499999 0
0.012500001 0.012499999 0
0.012500001 0.0125 0
0.012500001 0.0125 0
0.012500001 0.0125 0
0.012500001 0.012500001 0
0.012500001 0.012500001 0
0.012500001 0.012500001 0
0.0125 0.012500001 0
0.0125 0.012500001 0
0.0125 0.012500001 0
0.012499999 0.012500001 0
0.012499999 0.012500001 0
0.012499999 0.012500001 0
0.012499999 0.0125 0
0.012499999 0.0125 0
0.012499999 0.0125 0
0.012499999 0.012499999 0

</DataArray>
</PointData>
<Points>
<DataArray type= "Float32" Name="Position"  NumberOfComponents= "3" format="ascii">
5.1250019e-05 -2.375005e-05 0
6.375002e-05 -2.375005e-05 0
7.6250013e-05 -2.375005e-05 0
8.8750021e-05 -2.375005e-05 0
0.00010125 -2.375005e-05 0
0.00011374995 -2.375005e-05 0
0.00012624997 -2.375005e-05 0
0.00012624997 -1.1250027e-05 0
0.00012624997 1.2500077e-06 0
0.00012624997 1.3749988e-05 0
0.00012624997 2.6249987e-05 0
0.00012624997 3.8749989e-05 0
0.00012624997 5.124999e-05 0
0.00011374995 5.124999e-05 0
0.00010125 5.124999e-05 0
8.8750021e-05 5.124999e-05 0
7.6250013e-05 5.124999e-05 0
6.375002e-05 5.124999e-05 0
5.1250019e-05 5.124999e-05 0
5.1250019e-05 3.8749989e-05 0
5.1250019e-05 2.6249987e-05 0
5.1250019e-05 1.3749988e-05 0
5.1250019e-05 1.2500077e-06 0
5.1250019e-05 -1.1250027e-05 0

</DataArray>
</Points>
<Cells>
<DataArray type="Int32" Name="connectivity" format="ascii">
0 1 2 3 4 5 6 7 8 9 10 11 12 13 14 15 16 17 18 19 20 21 22 23 
</DataArray>

<DataArray type="Int32" Name="offsets" format="ascii">
1 2 3 4 5 6 7 8 9 10 11 12 13 14 15 16 17 18 19 20 21 22 23 24 
</DataArray>

<DataArray type="Int32" Name="types" format="ascii">
1 1 1 1 1 1 1 1 1 1 1 1 1 1 1 1 1 1 1 1 1 1 1 1 
</DataArray>
</Cells>
</Piece>
</UnstructuredGrid>
</VTKFile>