<?xml version="1.0" ?>

<VTKFile type="UnstructuredGrid" version="0.1" byte_order="BigEndian">

<UnstructuredGrid>

<Piece NumberOfPoints= " 24 " NumberOfCells=" 24 ">

<PointData Vectors="Velocity">

<DataArray type="Float32" Name="Velocity" NumberOfComponents="3" format="ascii">
0.0125 0.0125 0
0.0125 0.0125 0
0.0125 0.0125 0
0.0125 0.0125 0
0.0125 0.0125 0
0.0125 0.0125 0
0.0125 0.0125 0
0.0125 0.0125 0
0.0125 0.0125 0
0.0125 0.0125 0
0.0125 0.0125 0
0.0125 0.0125 0
0.0125 0.0125 0
0.0125 0.0125 0
0.0125 0.0125 0
0.0125 0.0125 0
0.0125 0.0125 0
0.0125 0.0125 0
0.0125 0.0125 0
0.0125 0.0125 0
0.0125 0.0125 0
0.0125 0.0125 0
0.0125 0.0125 0
0.0125 0.0125 0

</DataArray>
</PointData>
<Points>
<DataArray type= "Float32" Name="Position"  NumberOfComponents= "3" format="ascii">
1.3749981e-05 -6.1250059e-05 0
2.624998e-05 -6.1250059e-05 0
3.8749979e-05 -6.1250059e-05 0
5.1249979e-05 -6.1250059e-05 0
6.3749991e-05 -6.1250059e-05 0
7.624994e-05 -6.1250059e-05 0
8.8749934e-05 -6.1250059e-05 0
8.8749934e-05 -4.8750051e-05 0
8.8749934e-05 -3.6250007e-05 0
8.8749934e-05 -2.3750017e-05 0
8.8749934e-05 -1.125002e-05 0
8.8749934e-05 1.2499822e-06 0
8.8749934e-05 1.3749981e-05 0
7.624994e-05 1.3749981e-05 0
6.3749991e-05 1.3749981e-05 0
5.1249979e-05 1.3749981e-05 0
3.8749979e-05 1.3749981e-05 0
2.624998e-05 1.3749981e-05 0
1.3749981e-05 1.3749981e-05 0
1.3749981e-05 1.2499822e-06 0
1.3749981e-05 -1.125002e-05 0
1.3749981e-05 -2.3750017e-05 0
1.3749981e-05 -3.6250007e-05 0
1.3749981e-05 -4.8750051e-05 0

</DataArray>
</Points>
<Cells>
<DataArray type="Int32" Name="connectivity" format="ascii">
0 1 2 3 4 5 6 7 8 9 10 11 12 13 14 15 16 17 18 19 20 21 22 23 
</DataArray>

<DataArray type="Int32" Name="offsets" format="ascii">
1 2 3 4 5 6 7 8 9 10 11 12 13 14 15 16 17 18 19 20 21 22 23 24 
</DataArray>

<DataArray type="Int32" Name="types" format="ascii">
1 1 1 1 1 1 1 1 1 1 1 1 1 1 1 1 1 1 1 1 1 1 1 1 
</DataArray>
</Cells>
</Piece>
</UnstructuredGrid>
</VTKFile>