<?xml version="1.0" ?>

<VTKFile type="UnstructuredGrid" version="0.1" byte_order="BigEndian">

<UnstructuredGrid>

<Piece NumberOfPoints= " 24 " NumberOfCells=" 24 ">

<PointData Vectors="Velocity">

<DataArray type="Float32" Name="Velocity" NumberOfComponents="3" format="ascii">
0.012499999 0.012499999 0
0.012499999 0.012499999 0
0.0125 0.012499999 0
0.0125 0.012499999 0
0.0125 0.012499999 0
0.012500001 0.012499999 0
0.012500001 0.012499999 0
0.012500001 0.012499999 0
0.012500001 0.0125 0
0.012500001 0.0125 0
0.012500001 0.0125 0
0.012500001 0.012500001 0
0.012500001 0.012500001 0
0.012500001 0.012500001 0
0.0125 0.012500001 0
0.0125 0.012500001 0
0.0125 0.012500001 0
0.012499999 0.012500001 0
0.012499999 0.012500001 0
0.012499999 0.012500001 0
0.012499999 0.0125 0
0.012499999 0.0125 0
0.012499999 0.0125 0
0.012499999 0.012499999 0

</DataArray>
</PointData>
<Points>
<DataArray type= "Float32" Name="Position"  NumberOfComponents= "3" format="ascii">
6.3750042e-05 -1.1250046e-05 0
7.6250042e-05 -1.1250046e-05 0
8.8750036e-05 -1.1250046e-05 0
0.00010125004 -1.1250046e-05 0
0.00011375002 -1.1250046e-05 0
0.00012625 -1.1250046e-05 0
0.00013875007 -1.1250046e-05 0
0.00013875007 1.2499768e-06 0
0.00013875007 1.3750012e-05 0
0.00013875007 2.6249993e-05 0
0.00013875007 3.8750004e-05 0
0.00013875007 5.1250012e-05 0
0.00013875007 6.3749991e-05 0
0.00012625 6.3749991e-05 0
0.00011375002 6.3749991e-05 0
0.00010125004 6.3749991e-05 0
8.8750036e-05 6.3749991e-05 0
7.6250042e-05 6.3749991e-05 0
6.3750042e-05 6.3749991e-05 0
6.3750042e-05 5.1250012e-05 0
6.3750042e-05 3.8750004e-05 0
6.3750042e-05 2.6249993e-05 0
6.3750042e-05 1.3750012e-05 0
6.3750042e-05 1.2499768e-06 0

</DataArray>
</Points>
<Cells>
<DataArray type="Int32" Name="connectivity" format="ascii">
0 1 2 3 4 5 6 7 8 9 10 11 12 13 14 15 16 17 18 19 20 21 22 23 
</DataArray>

<DataArray type="Int32" Name="offsets" format="ascii">
1 2 3 4 5 6 7 8 9 10 11 12 13 14 15 16 17 18 19 20 21 22 23 24 
</DataArray>

<DataArray type="Int32" Name="types" format="ascii">
1 1 1 1 1 1 1 1 1 1 1 1 1 1 1 1 1 1 1 1 1 1 1 1 
</DataArray>
</Cells>
</Piece>
</UnstructuredGrid>
</VTKFile>