<?xml version="1.0" ?>

<VTKFile type="UnstructuredGrid" version="0.1" byte_order="BigEndian">

<UnstructuredGrid>

<Piece NumberOfPoints= " 24 " NumberOfCells=" 24 ">

<PointData Vectors="Velocity">

<DataArray type="Float32" Name="Velocity" NumberOfComponents="3" format="ascii">
0.012499998 0.012499998 0
0.012499999 0.012499998 0
0.012499999 0.012499998 0
0.0125 0.012499998 0
0.012500001 0.012499998 0
0.012500001 0.012499998 0
0.012500002 0.012499998 0
0.012500002 0.012499999 0
0.012500002 0.012499999 0
0.012500002 0.0125 0
0.012500002 0.012500001 0
0.012500002 0.012500001 0
0.012500002 0.012500002 0
0.012500001 0.012500002 0
0.012500001 0.012500002 0
0.0125 0.012500002 0
0.012499999 0.012500002 0
0.012499999 0.012500002 0
0.012499998 0.012500002 0
0.012499998 0.012500001 0
0.012499998 0.012500001 0
0.012499998 0.0125 0
0.012499998 0.012499999 0
0.012499998 0.012499999 0

</DataArray>
</PointData>
<Points>
<DataArray type= "Float32" Name="Position"  NumberOfComponents= "3" format="ascii">
8.8750057e-05 1.3749934e-05 0
0.00010125006 1.3749934e-05 0
0.00011375005 1.3749934e-05 0
0.00012625006 1.3749934e-05 0
0.0001387501 1.3749934e-05 0
0.00015125013 1.3749934e-05 0
0.0001637502 1.3749934e-05 0
0.0001637502 2.6249956e-05 0
0.0001637502 3.8749989e-05 0
0.0001637502 5.1249972e-05 0
0.0001637502 6.3749991e-05 0
0.0001637502 7.6249955e-05 0
0.0001637502 8.8749919e-05 0
0.00015125013 8.8749919e-05 0
0.0001387501 8.8749919e-05 0
0.00012625006 8.8749919e-05 0
0.00011375005 8.8749919e-05 0
0.00010125006 8.8749919e-05 0
8.8750057e-05 8.8749919e-05 0
8.8750057e-05 7.6249955e-05 0
8.8750057e-05 6.3749991e-05 0
8.8750057e-05 5.1249972e-05 0
8.8750057e-05 3.8749989e-05 0
8.8750057e-05 2.6249956e-05 0

</DataArray>
</Points>
<Cells>
<DataArray type="Int32" Name="connectivity" format="ascii">
0 1 2 3 4 5 6 7 8 9 10 11 12 13 14 15 16 17 18 19 20 21 22 23 
</DataArray>

<DataArray type="Int32" Name="offsets" format="ascii">
1 2 3 4 5 6 7 8 9 10 11 12 13 14 15 16 17 18 19 20 21 22 23 24 
</DataArray>

<DataArray type="Int32" Name="types" format="ascii">
1 1 1 1 1 1 1 1 1 1 1 1 1 1 1 1 1 1 1 1 1 1 1 1 
</DataArray>
</Cells>
</Piece>
</UnstructuredGrid>
</VTKFile>