<?xml version="1.0" ?>

<VTKFile type="UnstructuredGrid" version="0.1" byte_order="BigEndian">

<UnstructuredGrid>

<Piece NumberOfPoints= " 24 " NumberOfCells=" 24 ">

<PointData Vectors="Velocity">

<DataArray type="Float32" Name="Velocity" NumberOfComponents="3" format="ascii">
0.012499994 0.012499994 0
0.012499996 0.012499994 0
0.012499998 0.012499994 0
0.0125 0.012499994 0
0.012500002 0.012499994 0
0.012500005 0.012499994 0
0.012500007 0.012499994 0
0.012500007 0.012499996 0
0.012500007 0.012499998 0
0.012500007 0.0125 0
0.012500007 0.012500002 0
0.012500007 0.012500005 0
0.012500007 0.012500007 0
0.012500005 0.012500007 0
0.012500002 0.012500007 0
0.0125 0.012500007 0
0.012499998 0.012500007 0
0.012499996 0.012500007 0
0.012499994 0.012500007 0
0.012499994 0.012500005 0
0.012499994 0.012500002 0
0.012499994 0.0125 0
0.012499994 0.012499998 0
0.012499994 0.012499996 0

</DataArray>
</PointData>
<Points>
<DataArray type= "Float32" Name="Position"  NumberOfComponents= "3" format="ascii">
0.00040125108 0.00032625045 0
0.00041375106 0.00032625045 0
0.00042625106 0.00032625045 0
0.00043875107 0.00032625045 0
0.00045125122 0.00032625045 0
0.00046375144 0.00032625045 0
0.00047625165 0.00032625045 0
0.00047625165 0.00033875048 0
0.00047625165 0.00035125049 0
0.00047625165 0.0003637505 0
0.00047625165 0.00037625065 0
0.00047625165 0.00038875086 0
0.00047625165 0.00040125102 0
0.00046375144 0.00040125102 0
0.00045125122 0.00040125102 0
0.00043875107 0.00040125102 0
0.00042625106 0.00040125102 0
0.00041375106 0.00040125102 0
0.00040125108 0.00040125102 0
0.00040125108 0.00038875086 0
0.00040125108 0.00037625065 0
0.00040125108 0.0003637505 0
0.00040125108 0.00035125049 0
0.00040125108 0.00033875048 0

</DataArray>
</Points>
<Cells>
<DataArray type="Int32" Name="connectivity" format="ascii">
0 1 2 3 4 5 6 7 8 9 10 11 12 13 14 15 16 17 18 19 20 21 22 23 
</DataArray>

<DataArray type="Int32" Name="offsets" format="ascii">
1 2 3 4 5 6 7 8 9 10 11 12 13 14 15 16 17 18 19 20 21 22 23 24 
</DataArray>

<DataArray type="Int32" Name="types" format="ascii">
1 1 1 1 1 1 1 1 1 1 1 1 1 1 1 1 1 1 1 1 1 1 1 1 
</DataArray>
</Cells>
</Piece>
</UnstructuredGrid>
</VTKFile>