<?xml version="1.0" ?>

<VTKFile type="UnstructuredGrid" version="0.1" byte_order="BigEndian">

<UnstructuredGrid>

<Piece NumberOfPoints= " 24 " NumberOfCells=" 24 ">

<PointData Vectors="Velocity">

<DataArray type="Float32" Name="Velocity" NumberOfComponents="3" format="ascii">
0.012499996 0.012499996 0
0.012499997 0.012499996 0
0.012499999 0.012499996 0
0.0125 0.012499996 0
0.012500001 0.012499996 0
0.012500003 0.012499996 0
0.012500004 0.012499996 0
0.012500004 0.012499997 0
0.012500004 0.012499999 0
0.012500004 0.0125 0
0.012500004 0.012500001 0
0.012500004 0.012500003 0
0.012500004 0.012500004 0
0.012500003 0.012500004 0
0.012500001 0.012500004 0
0.0125 0.012500004 0
0.012499999 0.012500004 0
0.012499997 0.012500004 0
0.012499996 0.012500004 0
0.012499996 0.012500003 0
0.012499996 0.012500001 0
0.012499996 0.0125 0
0.012499996 0.012499999 0
0.012499996 0.012499997 0

</DataArray>
</PointData>
<Points>
<DataArray type= "Float32" Name="Position"  NumberOfComponents= "3" format="ascii">
0.00021374963 0.00013874982 0
0.00022624964 0.00013874982 0
0.00023874964 0.00013874982 0
0.00025124964 0.00013874982 0
0.0002637498 0.00013874982 0
0.00027625001 0.00013874982 0
0.00028875022 0.00013874982 0
0.00028875022 0.00015124984 0
0.00028875022 0.00016374986 0
0.00028875022 0.00017624986 0
0.00028875022 0.00018874991 0
0.00028875022 0.00020124995 0
0.00028875022 0.00021374998 0
0.00027625001 0.00021374998 0
0.0002637498 0.00021374998 0
0.00025124964 0.00021374998 0
0.00023874964 0.00021374998 0
0.00022624964 0.00021374998 0
0.00021374963 0.00021374998 0
0.00021374963 0.00020124995 0
0.00021374963 0.00018874991 0
0.00021374963 0.00017624986 0
0.00021374963 0.00016374986 0
0.00021374963 0.00015124984 0

</DataArray>
</Points>
<Cells>
<DataArray type="Int32" Name="connectivity" format="ascii">
0 1 2 3 4 5 6 7 8 9 10 11 12 13 14 15 16 17 18 19 20 21 22 23 
</DataArray>

<DataArray type="Int32" Name="offsets" format="ascii">
1 2 3 4 5 6 7 8 9 10 11 12 13 14 15 16 17 18 19 20 21 22 23 24 
</DataArray>

<DataArray type="Int32" Name="types" format="ascii">
1 1 1 1 1 1 1 1 1 1 1 1 1 1 1 1 1 1 1 1 1 1 1 1 
</DataArray>
</Cells>
</Piece>
</UnstructuredGrid>
</VTKFile>