<?xml version="1.0" ?>

<VTKFile type="UnstructuredGrid" version="0.1" byte_order="BigEndian">

<UnstructuredGrid>

<Piece NumberOfPoints= " 24 " NumberOfCells=" 24 ">

<PointData Vectors="Velocity">

<DataArray type="Float32" Name="Velocity" NumberOfComponents="3" format="ascii">
0.012499999 0.012499999 0
0.0125 0.012499999 0
0.0125 0.012499999 0
0.0125 0.012499999 0
0.0125 0.012499999 0
0.0125 0.012499999 0
0.012500001 0.012499999 0
0.012500001 0.0125 0
0.012500001 0.0125 0
0.012500001 0.0125 0
0.012500001 0.0125 0
0.012500001 0.0125 0
0.012500001 0.012500001 0
0.0125 0.012500001 0
0.0125 0.012500001 0
0.0125 0.012500001 0
0.0125 0.012500001 0
0.0125 0.012500001 0
0.012499999 0.012500001 0
0.012499999 0.0125 0
0.012499999 0.0125 0
0.012499999 0.0125 0
0.012499999 0.0125 0
0.012499999 0.0125 0

</DataArray>
</PointData>
<Points>
<DataArray type= "Float32" Name="Position"  NumberOfComponents= "3" format="ascii">
2.6249974e-05 -4.8750051e-05 0
3.8749975e-05 -4.8750051e-05 0
5.1249972e-05 -4.8750051e-05 0
6.3749976e-05 -4.8750051e-05 0
7.6249955e-05 -4.8750051e-05 0
8.8749905e-05 -4.8750051e-05 0
0.0001012499 -4.8750051e-05 0
0.0001012499 -3.6250029e-05 0
0.0001012499 -2.3749995e-05 0
0.0001012499 -1.1250013e-05 0
0.0001012499 1.2499841e-06 0
0.0001012499 1.3749986e-05 0
0.0001012499 2.6249985e-05 0
8.8749905e-05 2.6249985e-05 0
7.6249955e-05 2.6249985e-05 0
6.3749976e-05 2.6249985e-05 0
5.1249972e-05 2.6249985e-05 0
3.8749975e-05 2.6249985e-05 0
2.6249974e-05 2.6249985e-05 0
2.6249974e-05 1.3749986e-05 0
2.6249974e-05 1.2499841e-06 0
2.6249974e-05 -1.1250013e-05 0
2.6249974e-05 -2.3749995e-05 0
2.6249974e-05 -3.6250029e-05 0

</DataArray>
</Points>
<Cells>
<DataArray type="Int32" Name="connectivity" format="ascii">
0 1 2 3 4 5 6 7 8 9 10 11 12 13 14 15 16 17 18 19 20 21 22 23 
</DataArray>

<DataArray type="Int32" Name="offsets" format="ascii">
1 2 3 4 5 6 7 8 9 10 11 12 13 14 15 16 17 18 19 20 21 22 23 24 
</DataArray>

<DataArray type="Int32" Name="types" format="ascii">
1 1 1 1 1 1 1 1 1 1 1 1 1 1 1 1 1 1 1 1 1 1 1 1 
</DataArray>
</Cells>
</Piece>
</UnstructuredGrid>
</VTKFile>