<?xml version="1.0" ?>

<VTKFile type="UnstructuredGrid" version="0.1" byte_order="BigEndian">

<UnstructuredGrid>

<Piece NumberOfPoints= " 24 " NumberOfCells=" 24 ">

<PointData Vectors="Velocity">

<DataArray type="Float32" Name="Velocity" NumberOfComponents="3" format="ascii">
0.012499995 0.012499995 0
0.012499996 0.012499995 0
0.012499998 0.012499995 0
0.0125 0.012499995 0
0.012500002 0.012499995 0
0.012500004 0.012499995 0
0.012500006 0.012499995 0
0.012500006 0.012499996 0
0.012500006 0.012499998 0
0.012500006 0.0125 0
0.012500006 0.012500002 0
0.012500006 0.012500004 0
0.012500006 0.012500006 0
0.012500004 0.012500006 0
0.012500002 0.012500006 0
0.0125 0.012500006 0
0.012499998 0.012500006 0
0.012499996 0.012500006 0
0.012499995 0.012500006 0
0.012499995 0.012500004 0
0.012499995 0.012500002 0
0.012499995 0.0125 0
0.012499995 0.012499998 0
0.012499995 0.012499996 0

</DataArray>
</PointData>
<Points>
<DataArray type= "Float32" Name="Position"  NumberOfComponents= "3" format="ascii">
0.00036375079 0.00028875016 0
0.00037625077 0.00028875016 0
0.00038875078 0.00028875016 0
0.00040125079 0.00028875016 0
0.00041375094 0.00028875016 0
0.00042625115 0.00028875016 0
0.00043875136 0.00028875016 0
0.00043875136 0.0003012502 0
0.00043875136 0.00031375021 0
0.00043875136 0.00032625021 0
0.00043875136 0.00033875037 0
0.00043875136 0.00035125058 0
0.00043875136 0.00036375073 0
0.00042625115 0.00036375073 0
0.00041375094 0.00036375073 0
0.00040125079 0.00036375073 0
0.00038875078 0.00036375073 0
0.00037625077 0.00036375073 0
0.00036375079 0.00036375073 0
0.00036375079 0.00035125058 0
0.00036375079 0.00033875037 0
0.00036375079 0.00032625021 0
0.00036375079 0.00031375021 0
0.00036375079 0.0003012502 0

</DataArray>
</Points>
<Cells>
<DataArray type="Int32" Name="connectivity" format="ascii">
0 1 2 3 4 5 6 7 8 9 10 11 12 13 14 15 16 17 18 19 20 21 22 23 
</DataArray>

<DataArray type="Int32" Name="offsets" format="ascii">
1 2 3 4 5 6 7 8 9 10 11 12 13 14 15 16 17 18 19 20 21 22 23 24 
</DataArray>

<DataArray type="Int32" Name="types" format="ascii">
1 1 1 1 1 1 1 1 1 1 1 1 1 1 1 1 1 1 1 1 1 1 1 1 
</DataArray>
</Cells>
</Piece>
</UnstructuredGrid>
</VTKFile>