<?xml version="1.0" ?>

<VTKFile type="UnstructuredGrid" version="0.1" byte_order="BigEndian">

<UnstructuredGrid>

<Piece NumberOfPoints= " 24 " NumberOfCells=" 24 ">

<PointData Vectors="Velocity">

<DataArray type="Float32" Name="Velocity" NumberOfComponents="3" format="ascii">
0.012499998 0.012499998 0
0.012499999 0.012499998 0
0.012499999 0.012499998 0
0.0125 0.012499998 0
0.012500001 0.012499998 0
0.012500001 0.012499998 0
0.012500002 0.012499998 0
0.012500002 0.012499999 0
0.012500002 0.012499999 0
0.012500002 0.0125 0
0.012500002 0.012500001 0
0.012500002 0.012500001 0
0.012500002 0.012500002 0
0.012500001 0.012500002 0
0.012500001 0.012500002 0
0.0125 0.012500002 0
0.012499999 0.012500002 0
0.012499999 0.012500002 0
0.012499998 0.012500002 0
0.012499998 0.012500001 0
0.012499998 0.012500001 0
0.012499998 0.0125 0
0.012499998 0.012499999 0
0.012499998 0.012499999 0

</DataArray>
</PointData>
<Points>
<DataArray type= "Float32" Name="Position"  NumberOfComponents= "3" format="ascii">
0.00011374996 3.8749953e-05 0
0.00012624996 3.8749953e-05 0
0.00013874995 3.8749953e-05 0
0.00015124996 3.8749953e-05 0
0.00016375 3.8749953e-05 0
0.00017625003 3.8749953e-05 0
0.0001887501 3.8749953e-05 0
0.0001887501 5.1249976e-05 0
0.0001887501 6.3750005e-05 0
0.0001887501 7.6249991e-05 0
0.0001887501 8.8749985e-05 0
0.0001887501 0.00010124995 0
0.0001887501 0.00011374991 0
0.00017625003 0.00011374991 0
0.00016375 0.00011374991 0
0.00015124996 0.00011374991 0
0.00013874995 0.00011374991 0
0.00012624996 0.00011374991 0
0.00011374996 0.00011374991 0
0.00011374996 0.00010124995 0
0.00011374996 8.8749985e-05 0
0.00011374996 7.6249991e-05 0
0.00011374996 6.3750005e-05 0
0.00011374996 5.1249976e-05 0

</DataArray>
</Points>
<Cells>
<DataArray type="Int32" Name="connectivity" format="ascii">
0 1 2 3 4 5 6 7 8 9 10 11 12 13 14 15 16 17 18 19 20 21 22 23 
</DataArray>

<DataArray type="Int32" Name="offsets" format="ascii">
1 2 3 4 5 6 7 8 9 10 11 12 13 14 15 16 17 18 19 20 21 22 23 24 
</DataArray>

<DataArray type="Int32" Name="types" format="ascii">
1 1 1 1 1 1 1 1 1 1 1 1 1 1 1 1 1 1 1 1 1 1 1 1 
</DataArray>
</Cells>
</Piece>
</UnstructuredGrid>
</VTKFile>