<?xml version="1.0" ?>

<VTKFile type="UnstructuredGrid" version="0.1" byte_order="BigEndian">

<UnstructuredGrid>

<Piece NumberOfPoints= " 24 " NumberOfCells=" 24 ">

<PointData Vectors="Velocity">

<DataArray type="Float32" Name="Velocity" NumberOfComponents="3" format="ascii">
0.012499999 0.012499999 0
0.012499999 0.012499999 0
0.0125 0.012499999 0
0.0125 0.012499999 0
0.0125 0.012499999 0
0.012500001 0.012499999 0
0.012500001 0.012499999 0
0.012500001 0.012499999 0
0.012500001 0.0125 0
0.012500001 0.0125 0
0.012500001 0.0125 0
0.012500001 0.012500001 0
0.012500001 0.012500001 0
0.012500001 0.012500001 0
0.0125 0.012500001 0
0.0125 0.012500001 0
0.0125 0.012500001 0
0.012499999 0.012500001 0
0.012499999 0.012500001 0
0.012499999 0.012500001 0
0.012499999 0.0125 0
0.012499999 0.0125 0
0.012499999 0.0125 0
0.012499999 0.012499999 0

</DataArray>
</PointData>
<Points>
<DataArray type= "Float32" Name="Position"  NumberOfComponents= "3" format="ascii">
3.8749997e-05 -3.625005e-05 0
5.1249997e-05 -3.625005e-05 0
6.3749991e-05 -3.625005e-05 0
7.6249999e-05 -3.625005e-05 0
8.8749977e-05 -3.625005e-05 0
0.00010124993 -3.625005e-05 0
0.00011374992 -3.625005e-05 0
0.00011374992 -2.3750028e-05 0
0.00011374992 -1.1249993e-05 0
0.00011374992 1.2499877e-06 0
0.00011374992 1.3749985e-05 0
0.00011374992 2.6249985e-05 0
0.00011374992 3.8749989e-05 0
0.00010124993 3.8749989e-05 0
8.8749977e-05 3.8749989e-05 0
7.6249999e-05 3.8749989e-05 0
6.3749991e-05 3.8749989e-05 0
5.1249997e-05 3.8749989e-05 0
3.8749997e-05 3.8749989e-05 0
3.8749997e-05 2.6249985e-05 0
3.8749997e-05 1.3749985e-05 0
3.8749997e-05 1.2499877e-06 0
3.8749997e-05 -1.1249993e-05 0
3.8749997e-05 -2.3750028e-05 0

</DataArray>
</Points>
<Cells>
<DataArray type="Int32" Name="connectivity" format="ascii">
0 1 2 3 4 5 6 7 8 9 10 11 12 13 14 15 16 17 18 19 20 21 22 23 
</DataArray>

<DataArray type="Int32" Name="offsets" format="ascii">
1 2 3 4 5 6 7 8 9 10 11 12 13 14 15 16 17 18 19 20 21 22 23 24 
</DataArray>

<DataArray type="Int32" Name="types" format="ascii">
1 1 1 1 1 1 1 1 1 1 1 1 1 1 1 1 1 1 1 1 1 1 1 1 
</DataArray>
</Cells>
</Piece>
</UnstructuredGrid>
</VTKFile>