<?xml version="1.0" ?>

<VTKFile type="UnstructuredGrid" version="0.1" byte_order="BigEndian">

<UnstructuredGrid>

<Piece NumberOfPoints= " 24 " NumberOfCells=" 24 ">

<PointData Vectors="Velocity">

<DataArray type="Float32" Name="Velocity" NumberOfComponents="3" format="ascii">
0.012499998 0.012499998 0
0.012499999 0.012499998 0
0.012499999 0.012499998 0
0.0125 0.012499998 0
0.012500001 0.012499998 0
0.012500001 0.012499998 0
0.012500002 0.012499998 0
0.012500002 0.012499999 0
0.012500002 0.012499999 0
0.012500002 0.0125 0
0.012500002 0.012500001 0
0.012500002 0.012500001 0
0.012500002 0.012500002 0
0.012500001 0.012500002 0
0.012500001 0.012500002 0
0.0125 0.012500002 0
0.012499999 0.012500002 0
0.012499999 0.012500002 0
0.012499998 0.012500002 0
0.012499998 0.012500001 0
0.012499998 0.012500001 0
0.012499998 0.0125 0
0.012499998 0.012499999 0
0.012499998 0.012499999 0

</DataArray>
</PointData>
<Points>
<DataArray type= "Float32" Name="Position"  NumberOfComponents= "3" format="ascii">
0.00010125001 2.6249931e-05 0
0.00011375001 2.6249931e-05 0
0.00012625 2.6249931e-05 0
0.00013875001 2.6249931e-05 0
0.00015125005 2.6249931e-05 0
0.00016375008 2.6249931e-05 0
0.00017625015 2.6249931e-05 0
0.00017625015 3.8749953e-05 0
0.00017625015 5.1249986e-05 0
0.00017625015 6.3749969e-05 0
0.00017625015 7.6249962e-05 0
0.00017625015 8.8749926e-05 0
0.00017625015 0.00010124989 0
0.00016375008 0.00010124989 0
0.00015125005 0.00010124989 0
0.00013875001 0.00010124989 0
0.00012625 0.00010124989 0
0.00011375001 0.00010124989 0
0.00010125001 0.00010124989 0
0.00010125001 8.8749926e-05 0
0.00010125001 7.6249962e-05 0
0.00010125001 6.3749969e-05 0
0.00010125001 5.1249986e-05 0
0.00010125001 3.8749953e-05 0

</DataArray>
</Points>
<Cells>
<DataArray type="Int32" Name="connectivity" format="ascii">
0 1 2 3 4 5 6 7 8 9 10 11 12 13 14 15 16 17 18 19 20 21 22 23 
</DataArray>

<DataArray type="Int32" Name="offsets" format="ascii">
1 2 3 4 5 6 7 8 9 10 11 12 13 14 15 16 17 18 19 20 21 22 23 24 
</DataArray>

<DataArray type="Int32" Name="types" format="ascii">
1 1 1 1 1 1 1 1 1 1 1 1 1 1 1 1 1 1 1 1 1 1 1 1 
</DataArray>
</Cells>
</Piece>
</UnstructuredGrid>
</VTKFile>