<?xml version="1.0" ?>

<VTKFile type="UnstructuredGrid" version="0.1" byte_order="BigEndian">

<UnstructuredGrid>

<Piece NumberOfPoints= " 24 " NumberOfCells=" 24 ">

<PointData Vectors="Velocity">

<DataArray type="Float32" Name="Velocity" NumberOfComponents="3" format="ascii">
0.012499996 0.012499996 0
0.012499997 0.012499996 0
0.012499998 0.012499996 0
0.0125 0.012499996 0
0.012500002 0.012499996 0
0.012500003 0.012499996 0
0.012500005 0.012499996 0
0.012500005 0.012499997 0
0.012500005 0.012499998 0
0.012500005 0.0125 0
0.012500005 0.012500002 0
0.012500005 0.012500003 0
0.012500005 0.012500005 0
0.012500003 0.012500005 0
0.012500002 0.012500005 0
0.0125 0.012500005 0
0.012499998 0.012500005 0
0.012499997 0.012500005 0
0.012499996 0.012500005 0
0.012499996 0.012500003 0
0.012499996 0.012500002 0
0.012499996 0.0125 0
0.012499996 0.012499998 0
0.012499996 0.012499997 0

</DataArray>
</PointData>
<Points>
<DataArray type= "Float32" Name="Position"  NumberOfComponents= "3" format="ascii">
0.00027625012 0.00020124957 0
0.0002887501 0.00020124957 0
0.00030125011 0.00020124957 0
0.00031375012 0.00020124957 0
0.00032625027 0.00020124957 0
0.00033875048 0.00020124957 0
0.0003512507 0.00020124957 0
0.0003512507 0.00021374959 0
0.0003512507 0.00022624961 0
0.0003512507 0.00023874961 0
0.0003512507 0.0002512497 0
0.0003512507 0.00026374991 0
0.0003512507 0.00027625007 0
0.00033875048 0.00027625007 0
0.00032625027 0.00027625007 0
0.00031375012 0.00027625007 0
0.00030125011 0.00027625007 0
0.0002887501 0.00027625007 0
0.00027625012 0.00027625007 0
0.00027625012 0.00026374991 0
0.00027625012 0.0002512497 0
0.00027625012 0.00023874961 0
0.00027625012 0.00022624961 0
0.00027625012 0.00021374959 0

</DataArray>
</Points>
<Cells>
<DataArray type="Int32" Name="connectivity" format="ascii">
0 1 2 3 4 5 6 7 8 9 10 11 12 13 14 15 16 17 18 19 20 21 22 23 
</DataArray>

<DataArray type="Int32" Name="offsets" format="ascii">
1 2 3 4 5 6 7 8 9 10 11 12 13 14 15 16 17 18 19 20 21 22 23 24 
</DataArray>

<DataArray type="Int32" Name="types" format="ascii">
1 1 1 1 1 1 1 1 1 1 1 1 1 1 1 1 1 1 1 1 1 1 1 1 
</DataArray>
</Cells>
</Piece>
</UnstructuredGrid>
</VTKFile>