<?xml version="1.0" ?>

<VTKFile type="UnstructuredGrid" version="0.1" byte_order="BigEndian">

<UnstructuredGrid>

<Piece NumberOfPoints= " 24 " NumberOfCells=" 24 ">

<PointData Vectors="Velocity">

<DataArray type="Float32" Name="Velocity" NumberOfComponents="3" format="ascii">
0.012499999 0.012499999 0
0.012499999 0.012499999 0
0.0125 0.012499999 0
0.0125 0.012499999 0
0.0125 0.012499999 0
0.012500001 0.012499999 0
0.012500001 0.012499999 0
0.012500001 0.012499999 0
0.012500001 0.0125 0
0.012500001 0.0125 0
0.012500001 0.0125 0
0.012500001 0.012500001 0
0.012500001 0.012500001 0
0.012500001 0.012500001 0
0.0125 0.012500001 0
0.0125 0.012500001 0
0.0125 0.012500001 0
0.012499999 0.012500001 0
0.012499999 0.012500001 0
0.012499999 0.012500001 0
0.012499999 0.0125 0
0.012499999 0.0125 0
0.012499999 0.0125 0
0.012499999 0.012499999 0

</DataArray>
</PointData>
<Points>
<DataArray type= "Float32" Name="Position"  NumberOfComponents= "3" format="ascii">
7.6250064e-05 1.2499477e-06 0
8.8750065e-05 1.2499477e-06 0
0.00010125006 1.2499477e-06 0
0.00011375007 1.2499477e-06 0
0.00012625006 1.2499477e-06 0
0.0001387501 1.2499477e-06 0
0.00015125016 1.2499477e-06 0
0.00015125016 1.374997e-05 0
0.00015125016 2.6250005e-05 0
0.00015125016 3.8749986e-05 0
0.00015125016 5.1250005e-05 0
0.00015125016 6.3750005e-05 0
0.00015125016 7.6249969e-05 0
0.0001387501 7.6249969e-05 0
0.00012625006 7.6249969e-05 0
0.00011375007 7.6249969e-05 0
0.00010125006 7.6249969e-05 0
8.8750065e-05 7.6249969e-05 0
7.6250064e-05 7.6249969e-05 0
7.6250064e-05 6.3750005e-05 0
7.6250064e-05 5.1250005e-05 0
7.6250064e-05 3.8749986e-05 0
7.6250064e-05 2.6250005e-05 0
7.6250064e-05 1.374997e-05 0

</DataArray>
</Points>
<Cells>
<DataArray type="Int32" Name="connectivity" format="ascii">
0 1 2 3 4 5 6 7 8 9 10 11 12 13 14 15 16 17 18 19 20 21 22 23 
</DataArray>

<DataArray type="Int32" Name="offsets" format="ascii">
1 2 3 4 5 6 7 8 9 10 11 12 13 14 15 16 17 18 19 20 21 22 23 24 
</DataArray>

<DataArray type="Int32" Name="types" format="ascii">
1 1 1 1 1 1 1 1 1 1 1 1 1 1 1 1 1 1 1 1 1 1 1 1 
</DataArray>
</Cells>
</Piece>
</UnstructuredGrid>
</VTKFile>