<?xml version="1.0" ?>

<VTKFile type="UnstructuredGrid" version="0.1" byte_order="BigEndian">

<UnstructuredGrid>

<Piece NumberOfPoints= " 24 " NumberOfCells=" 24 ">

<PointData Vectors="Velocity">

<DataArray type="Float32" Name="Velocity" NumberOfComponents="3" format="ascii">
0.012499995 0.012499995 0
0.012499996 0.012499995 0
0.012499998 0.012499995 0
0.0125 0.012499995 0
0.012500002 0.012499995 0
0.012500004 0.012499995 0
0.012500006 0.012499995 0
0.012500006 0.012499996 0
0.012500006 0.012499998 0
0.012500006 0.0125 0
0.012500006 0.012500002 0
0.012500006 0.012500004 0
0.012500006 0.012500006 0
0.012500004 0.012500006 0
0.012500002 0.012500006 0
0.0125 0.012500006 0
0.012499998 0.012500006 0
0.012499996 0.012500006 0
0.012499995 0.012500006 0
0.012499995 0.012500004 0
0.012499995 0.012500002 0
0.012499995 0.0125 0
0.012499995 0.012499998 0
0.012499995 0.012499996 0

</DataArray>
</PointData>
<Points>
<DataArray type= "Float32" Name="Position"  NumberOfComponents= "3" format="ascii">
0.0003387506 0.00026374997 0
0.00035125058 0.00026374997 0
0.00036375059 0.00026374997 0
0.00037625059 0.00026374997 0
0.00038875075 0.00026374997 0
0.00040125096 0.00026374997 0
0.00041375117 0.00026374997 0
0.00041375117 0.00027625001 0
0.00041375117 0.00028875002 0
0.00041375117 0.00030125002 0
0.00041375117 0.00031375018 0
0.00041375117 0.00032625039 0
0.00041375117 0.00033875054 0
0.00040125096 0.00033875054 0
0.00038875075 0.00033875054 0
0.00037625059 0.00033875054 0
0.00036375059 0.00033875054 0
0.00035125058 0.00033875054 0
0.0003387506 0.00033875054 0
0.0003387506 0.00032625039 0
0.0003387506 0.00031375018 0
0.0003387506 0.00030125002 0
0.0003387506 0.00028875002 0
0.0003387506 0.00027625001 0

</DataArray>
</Points>
<Cells>
<DataArray type="Int32" Name="connectivity" format="ascii">
0 1 2 3 4 5 6 7 8 9 10 11 12 13 14 15 16 17 18 19 20 21 22 23 
</DataArray>

<DataArray type="Int32" Name="offsets" format="ascii">
1 2 3 4 5 6 7 8 9 10 11 12 13 14 15 16 17 18 19 20 21 22 23 24 
</DataArray>

<DataArray type="Int32" Name="types" format="ascii">
1 1 1 1 1 1 1 1 1 1 1 1 1 1 1 1 1 1 1 1 1 1 1 1 
</DataArray>
</Cells>
</Piece>
</UnstructuredGrid>
</VTKFile>