<?xml version="1.0" ?>

<VTKFile type="UnstructuredGrid" version="0.1" byte_order="BigEndian">

<UnstructuredGrid>

<Piece NumberOfPoints= " 2009 " NumberOfCells=" 2009 ">

<PointData Scalars="Pressure" Vectors="Velocity">

<DataArray type="Float32" Name="Pressure" format="ascii">

7.18849 14.0554 12.6606 9.76356 10.4073 12.1241 6.75932 6.54473 6.75932 6.75932 6.54473 6.54473 6.54473 6.86661 6.54473 6.54473 6.54473 6.54473 6.54473 6.65203 6.54473 6.54473 6.75932 6.75932 6.54473 6.54473 6.65203 6.54473 6.54473 6.75932 6.75932 6.54473 6.54473 6.75932 8.47602 9.54897 10.6219 8.47602 11.373 9.01249 10.7292 16.8452 19.4205 16.416 10.3 9.54897 10.7292 10.6219 9.22708 9.22708 9.22708 9.22708 9.11979 9.11979 7.93955 9.11979 9.11979 9.11979 9.11979 9.22708 4.07701 9.22708 9.22708 9.33438 9.33438 9.22708 9.22708 4.07701 9.22708 9.22708 9.33438 9.33438 9.22708 9.22708 9.33438 9.22708 16.416 7.72496 10.3 14.1627 14.6992 5.25722 16.0941 14.6992 15.343 9.76356 7.18849 12.8752 4.50618 3.64785 8.26143 8.36873 3.54056 3.54056 3.54056 0.536443 3.54056 3.54056 3.54056 3.54056 3.54056 4.50618 3.54056 3.54056 8.26143 8.26143 3.54056 3.54056 4.50618 3.54056 3.54056 8.36873 8.26143 3.64785 3.64785 8.36873 8.26143 11.4803 4.72076 6.86661 16.5233 12.7679 15.9868 13.5189 13.3043 11.9095 4.50618 2.03849 14.1627 6.22285 3.64785 4.1843 4.1843 3.64785 3.64785 3.54056 7.83225 3.54056 3.54056 3.54056 3.54056 3.64785 2.78952 3.64785 3.64785 4.1843 4.1843 3.64785 3.64785 2.78952 3.64785 3.64785 4.1843 4.1843 3.64785 3.64785 4.1843 6.22285 11.9095 3.64785 5.5791 7.40308 10.3 12.7679 8.47602 9.76356 8.04684 0.75102 0.965598 9.01249 2.68223 0 4.2916 4.2916 0 0 0 0.107288 0 0 0 0 0 4.1843 0 0 4.1843 4.1843 0 0 4.1843 0 0 4.1843 4.1843 0 0 4.1843 5.68639 6.97391 0.536443 7.18849 5.25722 9.11979 7.83225 10.5146 5.79368 5.90098 2.68223 9.22708 1.28747 5.36451 4.82805 0 0 4.82805 4.82805 4.82805 0.214577 4.82805 4.82805 4.82805 4.82805 4.82805 0 4.82805 4.82805 0 0 4.82805 4.82805 0 4.82805 4.82805 0 0 4.82805 4.82805 0 1.71662 5.5791 10.1927 8.36873 13.7335 14.27 10.6219 7.40308 10.7292 5.5791 9.22708 2.89681 5.47181 4.39889 2.46765 0 0 2.46765 2.46765 2.46765 1.9312 2.46765 2.46765 2.46765 2.46765 2.46765 0 2.46765 2.46765 0 0 2.46765 2.46765 0 2.46765 2.46765 0 0 2.46765 2.46765 0 6.75932 7.93955 2.14578 4.82805 4.2916 10.6219 11.373 6.65203 9.33438 8.47602 6.22285 0.107288 5.14993 2.36036 0 0 0 0 0 0 4.93535 0 0 0 0 0 0 0 0 0 0 0 0 0 0 0 0 0 0 0 0 2.46765 4.82805 0 3.64785 3.64785 9.22708 6.54473 6.75932 15.0211 14.27 4.1843 4.39889 2.89681 3.75514 0 0 0 0 0 0 0 0 0 0 0 0 0 0 0 0 0 0 0 0 0 0 0 0 0 0 0 0 0 4.2916 4.1843 8.26143 9.22708 6.75932 6.75932 9.22708 8.36873 4.1843 4.2916 0 0.214577 0 0 0 0 0 0 0 0 0 0 0 0 0 0 0 0 0 0 0 0 0 0 0 0 0 0 0 0 0 4.2916 4.1843 8.36873 9.22708 6.75932 6.54473 9.22708 3.54056 3.64785 0 4.82805 2.46765 0 0 0 0 0 0 0 0 0 0 0 0 0 0 0 0 0 0 0 0 0 0 0 0 0 0 0 2.46765 4.82805 0 3.64785 3.54056 9.22708 6.54473 6.54473 9.11979 3.54056 3.64785 0 4.82805 2.46765 0 0 0 0 0 0 0 0 0 0 0 0 0 0 0 0 0 0 0 0 0 0 0 0 0 0 0 2.46765 4.82805 0 3.64785 3.54056 9.11979 6.54473 6.54473 9.11979 3.54056 3.54056 0 4.82805 2.46765 0 0 0 0 0 0 0 0 0 0 0 0 0 0 0 0 0 0 0 0 0 0 0 0 0 0 0 2.46765 4.82805 0 3.54056 3.54056 9.11979 6.54473 6.86661 7.93955 0.536443 7.83225 0.107288 0.214577 1.9312 4.93535 0 0 0 0 0 0 0 0 0 0 0 0 0 0 0 0 0 0 0 0 0 0 0 0 0 4.93535 1.9312 0.214577 0.107288 7.83225 0.536443 7.93955 6.86661 6.54473 9.11979 3.54056 3.54056 0 4.82805 2.46765 0 0 0 0 0 0 0 0 0 0 0 0 0 0 0 0 0 0 0 0 0 0 0 0 0 0 0 2.46765 4.82805 0 3.54056 3.54056 9.11979 6.54473 6.54473 9.11979 3.54056 3.54056 0 4.82805 2.46765 0 0 0 0 0 0 0 0 0 0 0 0 0 0 0 0 0 0 0 0 0 0 0 0 0 0 0 2.46765 4.82805 0 3.54056 3.54056 9.11979 6.54473 6.54473 9.11979 3.54056 3.54056 0 4.82805 2.46765 0 0 0 0 0 0 0 0 0 0 0 0 0 0 0 0 0 0 0 0 0 0 0 0 0 0 0 2.46765 4.82805 0 3.54056 3.54056 9.11979 6.54473 6.54473 9.11979 3.54056 3.54056 0 4.82805 2.46765 0 0 0 0 0 0 0 0 0 0 0 0 0 0 0 0 0 0 0 0 0 0 0 0 0 0 0 2.46765 4.82805 0 3.54056 3.54056 9.11979 6.54473 6.54473 9.22708 3.54056 3.64785 0 4.82805 2.46765 0 0 0 0 0 0 0 0 0 0 0 0 0 0 0 0 0 0 0 0 0 0 0 0 0 0 0 2.46765 4.82805 0 3.64785 3.54056 9.22708 6.54473 6.65203 4.07701 4.50618 2.78952 4.1843 0 0 0 0 0 0 0 0 0 0 0 0 0 0 0 0 0 0 0 0 0 0 0 0 0 0 0 0 0 0 0 4.1843 2.78952 4.50618 4.07701 6.65203 6.54473 9.22708 3.54056 3.64785 0 4.82805 2.46765 0 0 0 0 0 0 0 0 0 0 0 0 0 0 0 0 0 0 0 0 0 0 0 0 0 0 0 2.46765 4.82805 0 3.64785 3.54056 9.22708 6.54473 6.54473 9.22708 3.54056 3.64785 0 4.82805 2.46765 0 0 0 0 0 0 0 0 0 0 0 0 0 0 0 0 0 0 0 0 0 0 0 0 0 0 0 2.46765 4.82805 0 3.64785 3.54056 9.22708 6.54473 6.75932 9.33438 8.26143 4.1843 4.1843 0 0 0 0 0 0 0 0 0 0 0 0 0 0 0 0 0 0 0 0 0 0 0 0 0 0 0 0 0 0 0 4.1843 4.1843 8.26143 9.33438 6.75932 6.75932 9.33438 8.26143 4.1843 4.1843 0 0 0 0 0 0 0 0 0 0 0 0 0 0 0 0 0 0 0 0 0 0 0 0 0 0 0 0 0 0 0 4.1843 4.1843 8.26143 9.33438 6.75932 6.54473 9.22708 3.54056 3.64785 0 4.82805 2.46765 0 0 0 0 0 0 0 0 0 0 0 0 0 0 0 0 0 0 0 0 0 0 0 0 0 0 0 2.46765 4.82805 0 3.64785 3.54056 9.22708 6.54473 6.54473 9.22708 3.54056 3.64785 0 4.82805 2.46765 0 0 0 0 0 0 0 0 0 0 0 0 0 0 0 0 0 0 0 0 0 0 0 0 0 0 0 2.46765 4.82805 0 3.64785 3.54056 9.22708 6.54473 6.65203 4.07701 4.50618 2.78952 4.1843 0 0 0 0 0 0 0 0 0 0 0 0 0 0 0 0 0 0 0 0 0 0 0 0 0 0 0 0 0 0 0 4.1843 2.78952 4.50618 4.07701 6.65203 6.54473 9.22708 3.54056 3.64785 0 4.82805 2.46765 0 0 0 0 0 0 0 0 0 0 0 0 0 0 0 0 0 0 0 0 0 0 0 0 0 0 0 2.46765 4.82805 0 3.64785 3.54056 9.22708 6.54473 6.54473 9.22708 3.54056 3.64785 0 4.82805 2.46765 0 0 0 0 0 0 0 0 0 0 0 0 0 0 0 0 0 0 0 0 0 0 0 0 0 0 0 2.46765 4.82805 0 3.64785 3.54056 9.22708 6.54473 6.75932 9.33438 8.36873 4.1843 4.1843 0 0 0 0 0 0 0 0 0 0 0 0 0 0 0 0 0 0 0 0 0 0 0 0 0 0 0 0 0 0 0 4.1843 4.1843 8.36873 9.33438 6.75932 6.75932 9.33438 8.26143 4.1843 4.1843 0 0 0 0 0 0 0 0 0 0 0 0 0 0 0 0 0 0 0 0 0 0 0 0 0 0 0 0 0 0 0 4.1843 4.1843 8.26143 9.33438 6.75932 6.54473 9.22708 3.64785 3.64785 0 4.82805 2.46765 0 0 0 0 0 0 0 0 0 0 0 0 0 0 0 0 0 0 0 0 0 0 0 0 0 0 0 2.46765 4.82805 0 3.64785 3.64785 9.22708 6.54473 6.54473 9.22708 3.64785 3.64785 0 4.82805 2.46765 0 0 0 0 0 0 0 0 0 0 0 0 0 0 0 0 0 0 0 0 0 0 0 0 0 0 0 2.46765 4.82805 0 3.64785 3.64785 9.22708 6.54473 6.75932 9.33438 8.36873 4.1843 4.1843 0 0 0 0 0 0 0 0 4.93535 0 0 0 0 0 0 0 0 0 0 0 0 0 0 0 0 0 0 0 0 0 0 4.1843 4.1843 8.26143 9.33438 6.75932 8.47602 9.22708 8.26143 6.22285 5.68639 1.71662 6.75932 2.46765 0 0 2.46765 2.46765 2.46765 1.9312 2.46765 2.46765 2.46765 2.46765 2.46765 0 2.46765 2.46765 0 0 2.46765 2.46765 0 2.46765 2.46765 0 0 2.46765 2.46765 0 4.39889 3.43327 5.90098 6.00827 8.26143 9.33438 7.93955 9.54897 16.416 11.4803 11.9095 6.97391 5.5791 7.93955 4.82805 0 0 4.82805 4.82805 4.82805 0.214577 4.82805 4.82805 4.82805 4.82805 4.82805 0 4.82805 4.82805 0 0 4.82805 4.82805 0 4.82805 4.82805 0 0 4.82805 4.82805 0 3.43327 10.4073 6.43744 7.51037 10.6219 12.7679 12.446 10.6219 7.72496 4.72076 3.64785 0.536443 10.1927 2.14578 0 4.2916 4.2916 0 0 0 0.107288 0 0 0 0 0 4.1843 0 0 4.1843 4.1843 0 0 4.1843 0 0 4.1843 4.1843 0 0 4.1843 5.90098 6.43744 0.643732 7.29579 5.5791 9.97815 8.04684 8.47602 10.3 6.86661 5.5791 7.18849 8.36873 4.82805 3.64785 4.1843 4.1843 3.64785 3.64785 3.54056 7.83225 3.54056 3.54056 3.54056 3.54056 3.64785 2.78952 3.64785 3.64785 4.1843 4.1843 3.64785 3.64785 2.78952 3.64785 3.64785 4.1843 4.1843 3.64785 3.64785 4.1843 6.00827 7.51037 7.29579 7.18849 7.40308 10.7292 10.0854 11.373 14.1627 16.5233 7.40308 5.25722 13.7335 4.2916 3.64785 8.26143 8.36873 3.54056 3.54056 3.54056 0.536443 3.54056 3.54056 3.54056 3.54056 3.54056 4.50618 3.54056 3.54056 8.26143 8.26143 3.54056 3.54056 4.50618 3.54056 3.54056 8.36873 8.26143 3.64785 3.64785 8.26143 8.26143 10.6219 5.5791 7.40308 16.416 14.4846 10.6219 9.01249 14.6992 12.7679 10.3 9.11979 14.27 10.6219 9.22708 9.22708 9.22708 9.22708 9.11979 9.11979 7.93955 9.11979 9.11979 9.11979 9.11979 9.22708 4.07701 9.22708 9.22708 9.33438 9.33438 9.22708 9.22708 4.07701 9.22708 9.22708 9.33438 9.33438 9.22708 9.22708 9.33438 9.33438 12.7679 9.97815 10.7292 14.4846 15.2357 5.90098 10.7292 5.25722 15.9868 12.7679 7.83225 10.6219 11.373 6.54473 6.75932 6.75932 6.54473 6.54473 6.54473 6.86661 6.54473 6.54473 6.54473 6.54473 6.54473 6.65203 6.54473 6.54473 6.75932 6.75932 6.54473 6.54473 6.65203 6.54473 6.54473 6.75932 6.75932 6.54473 6.54473 6.75932 7.93955 12.446 8.04684 10.0854 10.6219 5.90098 9.22708 0.1 0.1 0.1 0.1 0.1 0.1 0.1 0.1 0.1 0.1 0.1 0.1 0.1 0.1 0.1 0.1 0.1 0.1 0.1 0.1 0.1 0.1 0.1 0.1 0.1 0.1 0.1 0.1 0.1 0.1 0.1 0.1 0.1 0.1 0.1 0.1 0.1 0.1 0.1 0.1 0.1 0.1 0.1 0.1 0.1 0.1 0.1 0.1 0.1 0.1 0.1 0.1 0.1 0.1 0.1 0.1 0.1 0.1 0.1 0.1 0.1 0.1 0.1 0.1 0.1 0.1 0.1 0.1 0.1 0.1 0.1 0.1 0.1 0.1 0.1 0.1 0.1 0.1 0.1 0.1 0.1 0.1 0.1 0.1 0.1 0.1 0.1 0.1 0.1 0.1 0.1 0.1 0.1 0.1 0.1 0.1 0.1 0.1 0.1 0.1 0.1 0.1 0.1 0.1 0.1 0.1 0.1 0.1 0.1 0.1 0.1 0.1 0.1 0.1 0.1 0.1 0.1 0.1 0.1 0.1 0.1 0.1 0.1 0.1 0.1 0.1 0.1 0.1 0.1 0.1 0.1 0.1 0.1 0.1 0.1 0.1 0.1 0.1 0.1 0.1 0.1 0.1 0.1 0.1 0.1 0.1 0.1 0.1 0.1 0.1 0.1 0.1 0.1 0.1 0.1 0.1 0.1 0.1 0.1 0.1 0.1 0.1 0.1 0.1 0.1 0.1 0.1 0.1 0.1 0.1 0.1 0.1 0.1 0.1 0.1 0.1 0.1 0.1 0.1 0.1 0.1 0.1 0.1 0.1 0.1 0.1 0.1 0.1 0.1 0.1 0.1 0.1 0.1 0.1 0.1 0.1 0.1 0.1 0.1 0.1 0.1 0.1 0.1 0.1 0.1 0.1 0.1 0.1 0.1 0.1 0.1 0.1 0.1 0.1 0.1 0.1 0.1 0.1 0.1 0.1 0.1 0.1 0.1 0.1 0.1 0.1 0.1 0.1 0.1 0.1 0.1 0.1 0.1 0.1 0.1 0.1 0.1 0.1 0.1 0.1 0.1 0.1 0.1 0.1 0.1 0.1 0.1 0.1 0.1 0.1 0.1 0.1 0.1 0.1 0.1 0.1 0.1 0.1 0.1 0.1 0.1 0.1 0.1 0.1 0.1 0.1 0.1 0.1 0.1 0.1 0.1 0.1 0.1 0.1 0.1 0.1 0.1 0.1 0.1 0.1 0.1 0.1 0.1 0.1 0.1 0.1 0.1 0.1 0.1 0.1 0.1 0.1 0.1 0.1 0.1 0.1 0.1 0.1 0.1 0.1 0.1 0.1 0.1 0.1 0.1 0.1 0.1 0.1 0.1 0.1 0.1 0.1 0.1 0.1 0.1 0.1 0.1 0.1 0.1 0.1 0.1 0.1 0.1 0.1 0.1 0.1 0.1 0.1 
</DataArray>

<DataArray type="Float32" Name="Density" format="ascii">
1000.01 1000.02 1000.01 1000.01 1000.01 1000.01 1000.01 1000.01 1000.01 1000.01 1000.01 1000.01 1000.01 1000.01 1000.01 1000.01 1000.01 1000.01 1000.01 1000.01 1000.01 1000.01 1000.01 1000.01 1000.01 1000.01 1000.01 1000.01 1000.01 1000.01 1000.01 1000.01 1000.01 1000.01 1000.01 1000.01 1000.01 1000.01 1000.01 1000.01 1000.01 1000.02 1000.02 1000.02 1000.01 1000.01 1000.01 1000.01 1000.01 1000.01 1000.01 1000.01 1000.01 1000.01 1000.01 1000.01 1000.01 1000.01 1000.01 1000.01 1000 1000.01 1000.01 1000.01 1000.01 1000.01 1000.01 1000 1000.01 1000.01 1000.01 1000.01 1000.01 1000.01 1000.01 1000.01 1000.02 1000.01 1000.01 1000.02 1000.02 1000.01 1000.02 1000.02 1000.02 1000.01 1000.01 1000.01 1000.01 1000 1000.01 1000.01 1000 1000 1000 1000 1000 1000 1000 1000 1000 1000.01 1000 1000 1000.01 1000.01 1000 1000 1000.01 1000 1000 1000.01 1000.01 1000 1000 1000.01 1000.01 1000.01 1000.01 1000.01 1000.02 1000.01 1000.02 1000.02 1000.01 1000.01 1000.01 1000 1000.02 1000.01 1000 1000 1000 1000 1000 1000 1000.01 1000 1000 1000 1000 1000 1000 1000 1000 1000 1000 1000 1000 1000 1000 1000 1000 1000 1000 1000 1000 1000.01 1000.01 1000 1000.01 1000.01 1000.01 1000.01 1000.01 1000.01 1000.01 1000 1000 1000.01 1000 1000 1000 1000 1000 1000 1000 1000 1000 1000 1000 1000 1000 1000 1000 1000 1000 1000 1000 1000 1000 1000 1000 1000 1000 1000 1000 1000 1000.01 1000.01 1000 1000.01 1000.01 1000.01 1000.01 1000.01 1000.01 1000.01 1000 1000.01 1000 1000.01 1000.01 1000 1000 1000.01 1000.01 1000.01 1000 1000.01 1000.01 1000.01 1000.01 1000.01 1000 1000.01 1000.01 1000 1000 1000.01 1000.01 1000 1000.01 1000.01 1000 1000 1000.01 1000.01 1000 1000 1000.01 1000.01 1000.01 1000.02 1000.02 1000.01 1000.01 1000.01 1000.01 1000.01 1000 1000.01 1000 1000 1000 1000 1000 1000 1000 1000 1000 1000 1000 1000 1000 1000 1000 1000 1000 1000 1000 1000 1000 1000 1000 1000 1000 1000 1000 1000 1000.01 1000.01 1000 1000.01 1000 1000.01 1000.01 1000.01 1000.01 1000.01 1000.01 1000 1000.01 1000 1000 1000 1000 1000 1000 1000 1000.01 1000 1000 1000 1000 1000 1000 1000 1000 1000 1000 1000 1000 1000 1000 1000 1000 1000 1000 1000 1000 1000 1000.01 1000 1000 1000 1000.01 1000.01 1000.01 1000.02 1000.02 1000 1000 1000 1000 1000 1000 1000 1000 1000 1000 1000 1000 1000 1000 1000 1000 1000 1000 1000 1000 1000 1000 1000 1000 1000 1000 1000 1000 1000 1000 1000 1000 1000 1000 1000 1000.01 1000.01 1000.01 1000.01 1000.01 1000.01 1000 1000 1000 1000 1000 1000 1000 1000 1000 1000 1000 1000 1000 1000 1000 1000 1000 1000 1000 1000 1000 1000 1000 1000 1000 1000 1000 1000 1000 1000 1000 1000 1000 1000 1000 1000.01 1000.01 1000.01 1000.01 1000.01 1000 1000 1000 1000.01 1000 1000 1000 1000 1000 1000 1000 1000 1000 1000 1000 1000 1000 1000 1000 1000 1000 1000 1000 1000 1000 1000 1000 1000 1000 1000 1000 1000 1000 1000.01 1000 1000 1000 1000.01 1000.01 1000.01 1000.01 1000 1000 1000 1000.01 1000 1000 1000 1000 1000 1000 1000 1000 1000 1000 1000 1000 1000 1000 1000 1000 1000 1000 1000 1000 1000 1000 1000 1000 1000 1000 1000 1000 1000 1000.01 1000 1000 1000 1000.01 1000.01 1000.01 1000.01 1000 1000 1000 1000.01 1000 1000 1000 1000 1000 1000 1000 1000 1000 1000 1000 1000 1000 1000 1000 1000 1000 1000 1000 1000 1000 1000 1000 1000 1000 1000 1000 1000 1000 1000.01 1000 1000 1000 1000.01 1000.01 1000.01 1000.01 1000 1000.01 1000 1000 1000 1000.01 1000 1000 1000 1000 1000 1000 1000 1000 1000 1000 1000 1000 1000 1000 1000 1000 1000 1000 1000 1000 1000 1000 1000 1000 1000 1000.01 1000 1000 1000 1000.01 1000 1000.01 1000.01 1000.01 1000.01 1000 1000 1000 1000.01 1000 1000 1000 1000 1000 1000 1000 1000 1000 1000 1000 1000 1000 1000 1000 1000 1000 1000 1000 1000 1000 1000 1000 1000 1000 1000 1000 1000 1000 1000.01 1000 1000 1000 1000.01 1000.01 1000.01 1000.01 1000 1000 1000 1000.01 1000 1000 1000 1000 1000 1000 1000 1000 1000 1000 1000 1000 1000 1000 1000 1000 1000 1000 1000 1000 1000 1000 1000 1000 1000 1000 1000 1000 1000 1000.01 1000 1000 1000 1000.01 1000.01 1000.01 1000.01 1000 1000 1000 1000.01 1000 1000 1000 1000 1000 1000 1000 1000 1000 1000 1000 1000 1000 1000 1000 1000 1000 1000 1000 1000 1000 1000 1000 1000 1000 1000 1000 1000 1000 1000.01 1000 1000 1000 1000.01 1000.01 1000.01 1000.01 1000 1000 1000 1000.01 1000 1000 1000 1000 1000 1000 1000 1000 1000 1000 1000 1000 1000 1000 1000 1000 1000 1000 1000 1000 1000 1000 1000 1000 1000 1000 1000 1000 1000 1000.01 1000 1000 1000 1000.01 1000.01 1000.01 1000.01 1000 1000 1000 1000.01 1000 1000 1000 1000 1000 1000 1000 1000 1000 1000 1000 1000 1000 1000 1000 1000 1000 1000 1000 1000 1000 1000 1000 1000 1000 1000 1000 1000 1000 1000.01 1000 1000 1000 1000.01 1000.01 1000.01 1000 1000.01 1000 1000 1000 1000 1000 1000 1000 1000 1000 1000 1000 1000 1000 1000 1000 1000 1000 1000 1000 1000 1000 1000 1000 1000 1000 1000 1000 1000 1000 1000 1000 1000 1000 1000 1000 1000.01 1000 1000.01 1000.01 1000.01 1000 1000 1000 1000.01 1000 1000 1000 1000 1000 1000 1000 1000 1000 1000 1000 1000 1000 1000 1000 1000 1000 1000 1000 1000 1000 1000 1000 1000 1000 1000 1000 1000 1000 1000.01 1000 1000 1000 1000.01 1000.01 1000.01 1000.01 1000 1000 1000 1000.01 1000 1000 1000 1000 1000 1000 1000 1000 1000 1000 1000 1000 1000 1000 1000 1000 1000 1000 1000 1000 1000 1000 1000 1000 1000 1000 1000 1000 1000 1000.01 1000 1000 1000 1000.01 1000.01 1000.01 1000.01 1000.01 1000 1000 1000 1000 1000 1000 1000 1000 1000 1000 1000 1000 1000 1000 1000 1000 1000 1000 1000 1000 1000 1000 1000 1000 1000 1000 1000 1000 1000 1000 1000 1000 1000 1000 1000 1000.01 1000.01 1000.01 1000.01 1000.01 1000.01 1000 1000 1000 1000 1000 1000 1000 1000 1000 1000 1000 1000 1000 1000 1000 1000 1000 1000 1000 1000 1000 1000 1000 1000 1000 1000 1000 1000 1000 1000 1000 1000 1000 1000 1000 1000.01 1000.01 1000.01 1000.01 1000.01 1000 1000 1000 1000.01 1000 1000 1000 1000 1000 1000 1000 1000 1000 1000 1000 1000 1000 1000 1000 1000 1000 1000 1000 1000 1000 1000 1000 1000 1000 1000 1000 1000 1000 1000.01 1000 1000 1000 1000.01 1000.01 1000.01 1000.01 1000 1000 1000 1000.01 1000 1000 1000 1000 1000 1000 1000 1000 1000 1000 1000 1000 1000 1000 1000 1000 1000 1000 1000 1000 1000 1000 1000 1000 1000 1000 1000 1000 1000 1000.01 1000 1000 1000 1000.01 1000.01 1000.01 1000 1000.01 1000 1000 1000 1000 1000 1000 1000 1000 1000 1000 1000 1000 1000 1000 1000 1000 1000 1000 1000 1000 1000 1000 1000 1000 1000 1000 1000 1000 1000 1000 1000 1000 1000 1000 1000 1000.01 1000 1000.01 1000.01 1000.01 1000 1000 1000 1000.01 1000 1000 1000 1000 1000 1000 1000 1000 1000 1000 1000 1000 1000 1000 1000 1000 1000 1000 1000 1000 1000 1000 1000 1000 1000 1000 1000 1000 1000 1000.01 1000 1000 1000 1000.01 1000.01 1000.01 1000.01 1000 1000 1000 1000.01 1000 1000 1000 1000 1000 1000 1000 1000 1000 1000 1000 1000 1000 1000 1000 1000 1000 1000 1000 1000 1000 1000 1000 1000 1000 1000 1000 1000 1000 1000.01 1000 1000 1000 1000.01 1000.01 1000.01 1000.01 1000.01 1000 1000 1000 1000 1000 1000 1000 1000 1000 1000 1000 1000 1000 1000 1000 1000 1000 1000 1000 1000 1000 1000 1000 1000 1000 1000 1000 1000 1000 1000 1000 1000 1000 1000 1000 1000.01 1000.01 1000.01 1000.01 1000.01 1000.01 1000 1000 1000 1000 1000 1000 1000 1000 1000 1000 1000 1000 1000 1000 1000 1000 1000 1000 1000 1000 1000 1000 1000 1000 1000 1000 1000 1000 1000 1000 1000 1000 1000 1000 1000 1000.01 1000.01 1000.01 1000.01 1000.01 1000 1000 1000 1000.01 1000 1000 1000 1000 1000 1000 1000 1000 1000 1000 1000 1000 1000 1000 1000 1000 1000 1000 1000 1000 1000 1000 1000 1000 1000 1000 1000 1000 1000 1000.01 1000 1000 1000 1000.01 1000.01 1000.01 1000.01 1000 1000 1000 1000.01 1000 1000 1000 1000 1000 1000 1000 1000 1000 1000 1000 1000 1000 1000 1000 1000 1000 1000 1000 1000 1000 1000 1000 1000 1000 1000 1000 1000 1000 1000.01 1000 1000 1000 1000.01 1000.01 1000.01 1000.01 1000.01 1000 1000 1000 1000 1000 1000 1000 1000 1000 1000 1000.01 1000 1000 1000 1000 1000 1000 1000 1000 1000 1000 1000 1000 1000 1000 1000 1000 1000 1000 1000 1000 1000 1000 1000 1000 1000.01 1000.01 1000.01 1000.01 1000.01 1000.01 1000.01 1000.01 1000 1000.01 1000 1000 1000 1000 1000 1000 1000 1000 1000 1000 1000 1000 1000 1000 1000 1000 1000 1000 1000 1000 1000 1000 1000 1000 1000 1000 1000 1000 1000 1000.01 1000.01 1000.01 1000.01 1000.01 1000.01 1000.02 1000.01 1000.01 1000.01 1000.01 1000.01 1000.01 1000 1000 1000.01 1000.01 1000.01 1000 1000.01 1000.01 1000.01 1000.01 1000.01 1000 1000.01 1000.01 1000 1000 1000.01 1000.01 1000 1000.01 1000.01 1000 1000 1000.01 1000.01 1000 1000 1000.01 1000.01 1000.01 1000.01 1000.01 1000.01 1000.01 1000.01 1000.01 1000 1000 1000.01 1000 1000 1000 1000 1000 1000 1000 1000 1000 1000 1000 1000 1000 1000 1000 1000 1000 1000 1000 1000 1000 1000 1000 1000 1000 1000 1000 1000 1000.01 1000.01 1000 1000.01 1000.01 1000.01 1000.01 1000.01 1000.01 1000.01 1000.01 1000.01 1000.01 1000.01 1000 1000 1000 1000 1000 1000 1000.01 1000 1000 1000 1000 1000 1000 1000 1000 1000 1000 1000 1000 1000 1000 1000 1000 1000 1000 1000 1000 1000.01 1000.01 1000.01 1000.01 1000.01 1000.01 1000.01 1000.01 1000.02 1000.02 1000.01 1000.01 1000.02 1000 1000 1000.01 1000.01 1000 1000 1000 1000 1000 1000 1000 1000 1000 1000.01 1000 1000 1000.01 1000.01 1000 1000 1000.01 1000 1000 1000.01 1000.01 1000 1000 1000.01 1000.01 1000.01 1000.01 1000.01 1000.02 1000.02 1000.01 1000.01 1000.02 1000.01 1000.01 1000.01 1000.02 1000.01 1000.01 1000.01 1000.01 1000.01 1000.01 1000.01 1000.01 1000.01 1000.01 1000.01 1000.01 1000.01 1000 1000.01 1000.01 1000.01 1000.01 1000.01 1000.01 1000 1000.01 1000.01 1000.01 1000.01 1000.01 1000.01 1000.01 1000.01 1000.01 1000.01 1000.01 1000.02 1000.02 1000.01 1000.01 1000.01 1000.02 1000.01 1000.01 1000.01 1000.01 1000.01 1000.01 1000.01 1000.01 1000.01 1000.01 1000.01 1000.01 1000.01 1000.01 1000.01 1000.01 1000.01 1000.01 1000.01 1000.01 1000.01 1000.01 1000.01 1000.01 1000.01 1000.01 1000.01 1000.01 1000.01 1000.01 1000.01 1000.01 1000.01 1000.01 1000.01 1000.01 1000.01 1000.01 1000 1000 1000 1000 1000 1000 1000 1000 1000 1000 1000 1000 1000 1000 1000 1000 1000 1000 1000 1000 1000 1000 1000 1000 1000 1000 1000 1000 1000 1000 1000 1000 1000 1000 1000 1000 1000 1000 1000 1000 1000 1000 1000 1000 1000 1000 1000 1000 1000 1000 1000 1000 1000 1000 1000 1000 1000 1000 1000 1000 1000 1000 1000 1000 1000 1000 1000 1000 1000 1000 1000 1000 1000 1000 1000 1000 1000 1000 1000 1000 1000 1000 1000 1000 1000 1000 1000 1000 1000 1000 1000 1000 1000 1000 1000 1000 1000 1000 1000 1000 1000 1000 1000 1000 1000 1000 1000 1000 1000 1000 1000 1000 1000 1000 1000 1000 1000 1000 1000 1000 1000 1000 1000 1000 1000 1000 1000 1000 1000 1000 1000 1000 1000 1000 1000 1000 1000 1000 1000 1000 1000 1000 1000 1000 1000 1000 1000 1000 1000 1000 1000 1000 1000 1000 1000 1000 1000 1000 1000 1000 1000 1000 1000 1000 1000 1000 1000 1000 1000 1000 1000 1000 1000 1000 1000 1000 1000 1000 1000 1000 1000 1000 1000 1000 1000 1000 1000 1000 1000 1000 1000 1000 1000 1000 1000 1000 1000 1000 1000 1000 1000 1000 1000 1000 1000 1000 1000 1000 1000 1000 1000 1000 1000 1000 1000 1000 1000 1000 1000 1000 1000 1000 1000 1000 1000 1000 1000 1000 1000 1000 1000 1000 1000 1000 1000 1000 1000 1000 1000 1000 1000 1000 1000 1000 1000 1000 1000 1000 1000 1000 1000 1000 1000 1000 1000 1000 1000 1000 1000 1000 1000 1000 1000 1000 1000 1000 1000 1000 1000 1000 1000 1000 1000 1000 1000 1000 1000 1000 1000 1000 1000 1000 1000 1000 1000 1000 1000 1000 1000 1000 1000 1000 1000 1000 1000 1000 1000 1000 1000 1000 1000 1000 1000 1000 1000 1000 1000 1000 1000 1000 1000 1000 1000 1000 1000 1000 1000 1000 1000 1000 1000 1000 1000 1000 1000 1000 1000 1000 
</DataArray>
<DataArray type="Float32" Name="Velocity" NumberOfComponents="3" format="ascii">
0.0043153772 0.00596938 0
-1.2764685e-05 0.0058364733 0
-0.00030020092 0.0052843248 0
0.00024167178 0.0046866694 0
0.0001089912 0.0039593764 0
0.00014485614 0.0029036659 0
2.4926239e-06 0.0040025124 0
4.4483679e-07 0.0040039937 0
1.6170295e-06 0.0028832837 0
2.1692042e-06 0.0028819044 0
-6.8234709e-07 0.0040039904 0
2.5551518e-07 0.0040040049 0
-2.6022136e-07 0.0040039984 0
2.7219105e-10 0.0048888074 0
-8.2806815e-07 0.0040040058 0
-1.1163457e-07 0.0040040058 0
-8.3369819e-08 0.0040040053 0
-2.577454e-07 0.00400401 0
1.0270982e-06 0.0040039951 0
1.3045983e-06 0.0028635331 0
3.8870985e-07 0.0040040044 0
-6.2897083e-09 0.0040040091 0
1.4293232e-07 0.002875133 0
-9.5676391e-08 0.0028751406 0
-1.496448e-07 0.0040040063 0
-3.8339829e-07 0.0040040035 0
2.9114108e-10 0.0028636148 0
3.8339829e-07 0.0040040035 0
1.4964475e-07 0.0040040063 0
1.1987292e-07 0.0028751406 0
-1.0629985e-06 0.002874952 0
-3.3112465e-07 0.0040040063 0
3.3352103e-07 0.0040040063 0
-7.1138338e-06 0.0028751076 0
-2.3745974e-05 0.0028790496 0
-0.00019361652 0.0039471509 0
-0.00010675773 0.0039100321 0
-0.00014880115 0.0029180101 0
-0.0010311564 0.0040728045 0
-2.0001869e-06 0.00382898 0
-0.0046124845 0.0044146092 0
0.0041899155 0.0011659592 0
0.00069897249 0.0012705631 0
0.00013518213 0.00051768014 0
0.00012188671 0.00073281466 0
0.00022465124 0.00091708131 0
0.00010194851 0.00060535182 0
2.7642485e-05 0.0011143413 0
1.2192289e-05 0.0011191224 0
2.2780644e-06 0.00086707529 0
5.0410204e-06 0.00086678966 0
3.7275665e-06 0.0011191536 0
2.9060573e-06 0.0011192049 0
6.3785001e-06 0.0011194216 0
-6.9789797e-07 0.0013843089 0
-2.8868169e-06 0.0011192835 0
1.1943375e-06 0.0011194013 0
3.8867092e-06 0.0011194227 0
3.7399884e-06 0.0011194064 0
4.5670295e-06 0.0011193035 0
-1.5928256e-08 0.00074460986 0
-1.3110916e-06 0.0011192973 0
-7.1308932e-07 0.0011191849 0
-1.2116794e-07 0.00086626073 0
3.1913095e-07 0.00086625508 0
1.182265e-06 0.0011192714 0
2.2044037e-06 0.0011192617 0
6.8315799e-08 0.00074448052 0
-3.8549297e-06 0.001119277 0
-2.4036506e-06 0.001119258 0
-2.4287583e-06 0.00086607249 0
7.3320166e-08 0.00086662918 0
-8.1320586e-06 0.0011192032 0
-5.4512593e-06 0.0011191672 0
-1.1934767e-05 0.00086531346 0
-1.0114006e-05 0.00086637307 0
-0.00022631403 0.0010543184 0
-0.00010284675 0.0011027122 0
-0.00022306338 0.00058731105 0
-0.00045734056 0.00036425979 0
-0.00056540285 0.00057772076 0
-0.0037987013 -5.9933318e-05 0
0.0034848668 0.00061754207 0
0.00025856623 0.00031787215 0
0.00072256487 6.3109874e-05 0
0.00034829232 8.243326e-05 0
0.00015203131 -0.00012589565 0
0.00020122185 5.0462058e-05 0
1.8732755e-05 0.0001174147 0
-5.763748e-06 0.00012135491 0
-2.9332472e-07 0.00020290898 0
4.8638572e-06 0.00020363227 0
6.1681681e-06 0.00012082914 0
3.9541879e-07 0.00012016133 0
-1.8861351e-06 0.00011995395 0
-8.7490662e-07 8.1691411e-05 0
1.7111331e-08 0.00012015767 0
-4.1633163e-07 0.00012024493 0
1.2316422e-06 0.00012022436 0
2.5343857e-06 0.00012023335 0
-8.3230339e-07 0.00012014677 0
2.3886871e-06 0.00016688507 0
1.4476473e-06 0.00012012947 0
-7.3192818e-06 0.00012022375 0
4.689819e-06 0.00020449817 0
-4.2022202e-06 0.00020455725 0
4.017415e-06 0.00012022618 0
-4.2598363e-06 0.00012027643 0
-3.5496855e-06 0.0001664849 0
-1.2091841e-06 0.00012038391 0
-5.5345055e-07 0.00012042422 0
-2.1158091e-06 0.00020453226 0
-1.4602474e-06 0.00020367034 0
3.303765e-06 0.00012068477 0
-7.2557054e-06 0.00012088581 0
-9.9267891e-06 0.00020385276 0
-2.1909318e-05 0.00020046318 0
-0.00013315967 5.387131e-05 0
-0.00010212942 7.0423463e-05 0
-0.00031872492 0.00018213814 0
-0.00042619178 0.00044702581 0
-0.00028394646 0.0005300612 0
-0.0039144857 0.00093310454 0
0.0040671835 0.00043572873 0
0.00081703841 0.00041506786 0
0.00051967904 0.00035637899 0
0.00014145688 0.00014963454 0
1.0050633e-05 0.0002416065 0
0.00012564509 0.00012963939 0
6.3927531e-05 0.00013794863 0
2.3731868e-06 0.00013841498 0
-9.57471e-07 0.00012653458 0
4.0571058e-06 0.00012655953 0
2.7480842e-06 0.00013815259 0
2.4392903e-06 0.00013772874 0
2.6741436e-06 0.00013754735 0
-3.7088859e-07 0.00019168465 0
-4.7697296e-07 0.00013754299 0
-3.1820906e-07 0.00013757167 0
2.8948892e-07 0.00013757186 0
2.6015147e-07 0.0001375709 0
5.5954195e-07 0.0001379219 0
-1.7591457e-06 0.00010910871 0
-3.3161245e-06 0.00013799641 0
1.5415872e-06 0.00013812708 0
9.9824967e-07 0.00012653864 0
-5.5803724e-07 0.00012654881 0
-1.0132557e-06 0.00013802867 0
5.2392193e-06 0.00013791857 0
4.5045669e-09 0.00010930608 0
-5.2157634e-06 0.00013791911 0
1.036513e-06 0.00013803053 0
5.8535835e-07 0.00012654591 0
-8.011346e-07 0.00012669948 0
-4.8037015e-07 0.00013816865 0
-9.8188748e-06 0.00013843503 0
-1.4612526e-05 0.00012670747 0
-3.4032306e-05 0.00012286012 0
-0.00010276512 0.00017270161 0
-0.00012219271 0.00015305962 0
-0.000217419 0.00020565218 0
-9.3657814e-05 0.00033073503 0
-0.00098965759 0.00011457848 0
-0.0040416922 0.00033053427 0
0.0041525811 0.00055223983 0
0.0010046377 0.00013247595 0
0.0002208816 0.00014813132 0
0.00016356095 7.9330573e-05 0
8.0792488e-05 6.7586487e-05 0
6.7656569e-05 7.9703306e-05 0
2.8996288e-05 7.1876355e-05 0
4.1463195e-06 7.3384086e-05 0
1.387675e-06 5.1224495e-05 0
3.0809636e-06 5.1078223e-05 0
-8.9878193e-07 7.3224852e-05 0
-7.3213624e-07 7.3248382e-05 0
2.0614247e-07 7.3091433e-05 0
-1.9297028e-07 8.0355334e-05 0
-3.6676204e-07 7.3088311e-05 0
1.4107758e-07 7.3124313e-05 0
1.5376878e-07 7.312349e-05 0
3.6719433e-07 7.3123687e-05 0
1.0665087e-06 7.3215742e-05 0
5.3158993e-07 4.9339993e-05 0
1.0673836e-07 7.3190407e-05 0
8.9132351e-07 7.3257957e-05 0
-3.4282682e-06 5.0200375e-05 0
3.4281127e-06 5.0200553e-05 0
-2.2866065e-07 7.3194438e-05 0
-1.6486551e-09 7.3187788e-05 0
1.4352963e-15 4.9372025e-05 0
1.6434404e-09 7.3187788e-05 0
2.2866068e-07 7.3194446e-05 0
-3.4282396e-06 5.0200542e-05 0
3.4434613e-06 5.0198847e-05 0
-3.7582001e-07 7.3191477e-05 0
3.7831703e-07 7.3218274e-05 0
-3.7797695e-06 5.0202332e-05 0
-3.4973378e-05 4.8075308e-05 0
-0.00017263048 2.8069097e-05 0
-5.8862843e-05 0.00014021974 0
-0.00015239359 8.2716033e-05 0
-0.00010239983 6.3547297e-05 0
-0.0011084317 0.00019452423 0
-0.0038149115 0.00025152828 0
0.0029359036 0.00016156357 0
0.00073379517 0.00013911461 0
0.00031237295 7.081675e-05 0
8.4217187e-05 7.5313277e-05 0
0.00010324087 0.00011524228 0
1.5922342e-05 2.1988935e-05 0
6.3989178e-06 9.2219336e-05 0
4.6265222e-06 8.9755638e-05 0
2.2734548e-06 2.3090281e-06 0
-1.3627025e-06 2.2947042e-06 0
1.5684728e-07 8.9747817e-05 0
-1.0079768e-07 8.9750029e-05 0
-1.8471906e-06 8.9705944e-05 0
6.4563898e-07 6.6881548e-05 0
1.0540862e-06 8.9718713e-05 0
-2.0420039e-07 8.9749949e-05 0
-7.2223474e-07 8.9750087e-05 0
-2.3406164e-07 8.9749941e-05 0
4.7200004e-07 8.9747809e-05 0
8.2706919e-07 2.1768851e-06 0
1.0566305e-07 8.97547e-05 0
8.4973101e-07 8.9750007e-05 0
9.1333959e-07 2.207943e-06 0
-9.1338597e-07 2.2079441e-06 0
-1.3164035e-07 8.9749592e-05 0
2.55027e-08 8.9750953e-05 0
3.1839422e-15 2.1903741e-06 0
-2.55027e-08 8.9750953e-05 0
1.3164035e-07 8.9749592e-05 0
9.1338592e-07 2.2079441e-06 0
-9.1339706e-07 2.2079428e-06 0
-3.6874593e-07 8.9749243e-05 0
3.6875431e-07 8.9749345e-05 0
-1.0158709e-06 2.2081954e-06 0
-5.013177e-05 -7.0823344e-06 0
8.4600724e-06 0.00017166772 0
-3.4225868e-05 0.00014834209 0
-0.00017997698 4.0426625e-05 0
-0.00019669223 0.00016945948 0
-0.00080771442 0.00012825115 0
-0.0028912998 6.2254228e-05 0
0.0039559691 1.2553749e-05 0
0.0012163208 3.8534879e-05 0
0.00021284301 8.397326e-05 0
0.00012647569 0.00014665799 0
0.00014407966 3.1633856e-05 0
0.00011865665 -9.0739386e-06 0
2.3776471e-05 2.3005297e-05 0
1.071699e-06 2.314704e-05 0
5.6847227e-07 -2.9102367e-09 0
-3.7106392e-07 -2.7157452e-09 0
-2.811185e-07 2.3146758e-05 0
-3.3452224e-08 2.3146487e-05 0
5.4753212e-07 2.3146295e-05 0
1.3602415e-11 7.8112083e-05 0
-5.4542761e-07 2.3146375e-05 0
-2.9886991e-07 2.3146506e-05 0
1.995014e-07 2.3146489e-05 0
4.998297e-07 2.3146564e-05 0
-7.3066033e-09 2.3146673e-05 0
-1.3826016e-07 -3.4034318e-09 0
8.1202685e-08 2.3147037e-05 0
-3.248579e-08 2.3147004e-05 0
3.688011e-07 -2.8633018e-09 0
-3.688009e-07 -2.8633e-09 0
3.3615201e-08 2.3146942e-05 0
-8.3947782e-08 2.3147026e-05 0
1.2246203e-15 -3.5148811e-09 0
8.3947782e-08 2.3147026e-05 0
-3.3615201e-08 2.3146942e-05 0
3.688009e-07 -2.8633e-09 0
-3.6880095e-07 -2.8632994e-09 0
3.3655677e-08 2.3146942e-05 0
-1.6759118e-07 2.3147091e-05 0
-1.2865453e-06 -3.9920027e-09 0
-4.8675352e-05 2.6390568e-05 0
-7.1189308e-05 4.7471603e-05 0
-7.198377e-05 2.871668e-05 0