<?xml version="1.0" ?>

<VTKFile type="UnstructuredGrid" version="0.1" byte_order="BigEndian">

<UnstructuredGrid>

<Piece NumberOfPoints= " 2009 " NumberOfCells=" 2009 ">

<PointData Scalars="Pressure" Vectors="Velocity">

<DataArray type="Float32" Name="Pressure" format="ascii">

13.0898 16.7379 19.2058 13.3043 6.97391 9.76356 6.97391 6.97391 10.4073 10.4073 6.97391 6.97391 6.97391 6.75932 6.97391 6.97391 6.97391 6.97391 6.97391 9.65626 6.97391 6.97391 10.4073 10.4073 6.97391 6.97391 9.76356 6.97391 6.97391 10.4073 10.4073 6.97391 6.97391 10.4073 10.4073 6.97391 6.97391 18.562 20.2789 14.4846 16.7379 21.3519 16.2014 19.957 12.446 5.04264 8.15414 4.93535 4.93535 8.58331 8.58331 4.93535 4.93535 4.93535 6.75932 4.93535 4.93535 4.93535 4.93535 4.93535 8.15414 4.93535 4.93535 8.58331 8.58331 4.93535 4.93535 8.15414 4.93535 4.93535 8.58331 8.58331 4.93535 4.93535 8.58331 8.58331 4.93535 5.14993 15.0211 16.7379 10.4073 19.0985 21.9957 15.1284 22.6396 13.197 6.33015 6.75932 6.00827 6.00827 6.97391 6.97391 6.00827 6.00827 6.00827 7.0812 6.00827 6.00827 6.00827 6.00827 6.00827 6.75932 6.00827 6.00827 6.97391 6.97391 6.00827 6.00827 6.75932 6.00827 6.00827 6.97391 6.97391 6.00827 6.00827 6.97391 6.97391 6.00827 6.11556 15.2357 20.1716 14.4846 20.7081 13.197 5.36451 6.22285 11.5876 5.68639 0 5.5791 5.5791 0 0 5.5791 5.5791 5.5791 3.75514 5.5791 5.5791 5.5791 5.5791 5.5791 0 5.5791 5.5791 0 0 5.5791 5.5791 0 5.5791 5.5791 0 0 5.5791 5.5791 0 0 5.5791 5.5791 13.0898 14.3773 13.0898 16.3087 14.4846 18.562 17.0598 11.5876 0 0 0 0 0 0 0 0 0 3.32598 0 0 0 0 0 0 0 0 0 0 0 0 0 0 0 0 0 0 0 0 0 0 0 5.47181 6.33015 5.04264 6.97391 11.5876 9.65626 7.40308 1.28747 0 0 0 0 0 0 0 0 0 0 0 0 0 0 0 0 0 0 0 0 0 0 0 0 0 0 0 0 0 0 0 0 0 0 6.97391 8.58331 10.7292 6.97391 4.93535 6.00827 5.5791 0 0 0 0 0 0 0 0 0 0 0 0 0 0 0 0 0 0 0 0 0 0 0 0 0 0 0 0 0 0 0 0 0 5.5791 6.00827 4.93535 6.97391 6.97391 4.93535 6.00827 5.5791 0 0 0 0 0 0 0 0 0 0 0 0 0 0 0 0 0 0 0 0 0 0 0 0 0 0 0 0 0 0 0 0 0 5.5791 6.00827 4.93535 6.97391 10.4073 8.58331 6.97391 0 0 0 0 0 0 0 0 0 0 0 0 0 0 0 0 0 0 0 0 0 0 0 0 0 0 0 0 0 0 0 0 0 0 0 6.97391 8.58331 10.4073 10.4073 8.58331 6.97391 0 0 0 0 0 0 0 0 0 0 0 0 0 0 0 0 0 0 0 0 0 0 0 0 0 0 0 0 0 0 0 0 0 0 0 6.97391 8.58331 10.4073 6.97391 4.93535 6.00827 5.5791 0 0 0 0 0 0 0 0 0 0 0 0 0 0 0 0 0 0 0 0 0 0 0 0 0 0 0 0 0 0 0 0 0 5.5791 6.00827 4.93535 6.97391 6.97391 4.93535 6.00827 5.5791 0 0 0 0 0 0 0 0 0 0 0 0 0 0 0 0 0 0 0 0 0 0 0 0 0 0 0 0 0 0 0 0 0 5.5791 6.00827 4.93535 6.97391 6.97391 4.93535 6.00827 5.5791 0 0 0 0 0 0 0 0 0 0 0 0 0 0 0 0 0 0 0 0 0 0 0 0 0 0 0 0 0 0 0 0 0 5.5791 6.00827 4.93535 6.97391 6.75932 6.75932 7.0812 3.75514 3.32598 0 0 0 0 0 0 0 0 0 0 0 0 0 0 0 0 0 0 0 0 0 0 0 0 0 0 0 0 0 0 0 3.32598 3.75514 7.0812 6.75932 6.75932 6.97391 4.93535 6.00827 5.5791 0 0 0 0 0 0 0 0 0 0 0 0 0 0 0 0 0 0 0 0 0 0 0 0 0 0 0 0 0 0 0 0 0 5.5791 6.00827 4.93535 6.97391 6.97391 4.93535 6.00827 5.5791 0 0 0 0 0 0 0 0 0 0 0 0 0 0 0 0 0 0 0 0 0 0 0 0 0 0 0 0 0 0 0 0 0 5.5791 6.00827 4.93535 6.97391 6.97391 4.93535 6.00827 5.5791 0 0 0 0 0 0 0 0 0 0 0 0 0 0 0 0 0 0 0 0 0 0 0 0 0 0 0 0 0 0 0 0 0 5.5791 6.00827 4.93535 6.97391 6.97391 4.93535 6.00827 5.5791 0 0 0 0 0 0 0 0 0 0 0 0 0 0 0 0 0 0 0 0 0 0 0 0 0 0 0 0 0 0 0 0 0 5.5791 6.00827 4.93535 6.97391 6.97391 4.93535 6.00827 5.5791 0 0 0 0 0 0 0 0 0 0 0 0 0 0 0 0 0 0 0 0 0 0 0 0 0 0 0 0 0 0 0 0 0 5.5791 6.00827 4.93535 6.97391 9.65626 8.15414 6.75932 0 0 0 0 0 0 0 0 0 0 0 0 0 0 0 0 0 0 0 0 0 0 0 0 0 0 0 0 0 0 0 0 0 0 0 6.75932 8.15414 9.65626 6.97391 4.93535 6.00827 5.5791 0 0 0 0 0 0 0 0 0 0 0 0 0 0 0 0 0 0 0 0 0 0 0 0 0 0 0 0 0 0 0 0 0 5.5791 6.00827 4.93535 6.97391 6.97391 4.93535 6.00827 5.5791 0 0 0 0 0 0 0 0 0 0 0 0 0 0 0 0 0 0 0 0 0 0 0 0 0 0 0 0 0 0 0 0 0 5.5791 6.00827 4.93535 6.97391 10.4073 8.58331 6.97391 0 0 0 0 0 0 0 0 0 0 0 0 0 0 0 0 0 0 0 0 0 0 0 0 0 0 0 0 0 0 0 0 0 0 0 6.97391 8.58331 10.4073 10.4073 8.58331 6.97391 0 0 0 0 0 0 0 0 0 0 0 0 0 0 0 0 0 0 0 0 0 0 0 0 0 0 0 0 0 0 0 0 0 0 0 6.97391 8.58331 10.4073 6.97391 4.93535 6.00827 5.5791 0 0 0 0 0 0 0 0 0 0 0 0 0 0 0 0 0 0 0 0 0 0 0 0 0 0 0 0 0 0 0 0 0 5.5791 6.00827 4.93535 6.97391 6.97391 4.93535 6.00827 5.5791 0 0 0 0 0 0 0 0 0 0 0 0 0 0 0 0 0 0 0 0 0 0 0 0 0 0 0 0 0 0 0 0 0 5.5791 6.00827 4.93535 6.97391 9.76356 8.15414 6.75932 0 0 0 0 0 0 0 0 0 0 0 0 0 0 0 0 0 0 0 0 0 0 0 0 0 0 0 0 0 0 0 0 0 0 0 6.75932 8.15414 9.76356 6.97391 4.93535 6.00827 5.5791 0 0 0 0 0 0 0 0 0 0 0 0 0 0 0 0 0 0 0 0 0 0 0 0 0 0 0 0 0 0 0 0 0 5.5791 6.00827 4.93535 6.97391 6.97391 4.93535 6.00827 5.5791 0 0 0 0 0 0 0 0 0 0 0 0 0 0 0 0 0 0 0 0 0 0 0 0 0 0 0 0 0 0 0 0 0 5.5791 6.00827 4.93535 6.97391 10.4073 8.58331 6.97391 0 0 0 0 0 0 0 0 0 0 0 0 0 0 0 0 0 0 0 0 0 0 0 0 0 0 0 0 0 0 0 0 0 0 0 6.97391 8.58331 10.4073 10.4073 8.58331 6.97391 0 0 0 0 0 0 0 0 0 0 0 0 0 0 0 0 0 0 0 0 0 0 0 0 0 0 0 0 0 0 0 0 0 0 0 6.97391 8.58331 10.4073 6.97391 4.93535 6.00827 5.5791 0 0 0 0 0 0 0 0 0 0 0 0 0 0 0 0 0 0 0 0 0 0 0 0 0 0 0 0 0 0 0 0 0 5.5791 6.00827 4.93535 6.97391 6.97391 4.93535 6.00827 5.5791 0 0 0 0 0 0 0 0 0 0 0 0 0 0 0 0 0 0 0 0 0 0 0 0 0 0 0 0 0 0 0 0 0 5.5791 6.00827 4.93535 6.97391 10.4073 8.58331 6.97391 0 0 0 0 0 0 0 0 0 0 0 0 0 0 0 0 0 0 0 0 0 0 0 0 0 0 0 0 0 0 0 0 0 0 0 6.97391 8.58331 10.4073 10.4073 8.58331 6.97391 0 0 0 0 0 0 0 0 0 0 0 0 0 0 0 0 0 0 0 0 0 0 0 0 0 0 0 0 0 0 0 0 0 0 0 6.97391 8.58331 10.4073 6.97391 4.93535 6.00827 5.5791 0 0 0 0 0 0 0 0 0 0 0 0 0 0 0 0 0 0 0 0 0 0 0 0 0 0 0 0 0 0 0 0 0 5.5791 6.00827 4.93535 6.97391 6.97391 5.14993 6.11556 5.5791 0 0 0 0 0 0 0 0 0 3.32598 0 0 0 0 0 0 0 0 0 0 0 0 0 0 0 0 0 0 0 0 0 0 0 5.5791 6.11556 5.14993 6.97391 18.562 15.0211 15.2357 13.0898 5.47181 0 5.5791 5.5791 0 0 5.5791 5.5791 5.5791 3.75514 5.5791 5.5791 5.5791 5.5791 5.5791 0 5.5791 5.5791 0 0 5.5791 5.5791 0 5.5791 5.5791 0 0 5.5791 5.5791 0 0 5.5791 5.5791 7.72496 15.5576 15.343 18.6693 20.2789 16.7379 20.1716 14.3773 6.33015 6.97391 6.00827 6.00827 6.97391 6.97391 6.00827 6.00827 6.00827 7.0812 6.00827 6.00827 6.00827 6.00827 6.00827 6.75932 6.00827 6.00827 6.97391 6.97391 6.00827 6.00827 6.75932 6.00827 6.00827 6.97391 6.97391 6.00827 6.00827 6.97391 6.97391 6.00827 6.11556 15.5576 19.7424 16.0941 19.7424 14.4846 10.4073 14.4846 13.0898 5.04264 8.58331 4.93535 4.93535 8.58331 8.58331 4.93535 4.93535 4.93535 6.75932 4.93535 4.93535 4.93535 4.93535 4.93535 8.15414 4.93535 4.93535 8.58331 8.58331 4.93535 4.93535 8.15414 4.93535 4.93535 8.58331 8.58331 4.93535 4.93535 8.58331 8.58331 4.93535 5.14993 15.343 16.0941 10.5146 19.0985 16.7379 19.0985 20.7081 16.3087 6.97391 10.7292 6.97391 6.97391 10.4073 10.4073 6.97391 6.97391 6.97391 6.75932 6.97391 6.97391 6.97391 6.97391 6.97391 9.65626 6.97391 6.97391 10.4073 10.4073 6.97391 6.97391 9.76356 6.97391 6.97391 10.4073 10.4073 6.97391 6.97391 10.4073 10.4073 6.97391 6.97391 18.6693 19.7424 19.0985 11.2657 0.1 0.1 0.1 0.1 0.1 0.1 0.1 0.1 0.1 0.1 0.1 0.1 0.1 0.1 0.1 0.1 0.1 0.1 0.1 0.1 0.1 0.1 0.1 0.1 0.1 0.1 0.1 0.1 0.1 0.1 0.1 0.1 0.1 0.1 0.1 0.1 0.1 0.1 0.1 0.1 0.1 0.1 0.1 0.1 0.1 0.1 0.1 0.1 0.1 0.1 0.1 0.1 0.1 0.1 0.1 0.1 0.1 0.1 0.1 0.1 0.1 0.1 0.1 0.1 0.1 0.1 0.1 0.1 0.1 0.1 0.1 0.1 0.1 0.1 0.1 0.1 0.1 0.1 0.1 0.1 0.1 0.1 0.1 0.1 0.1 0.1 0.1 0.1 0.1 0.1 0.1 0.1 0.1 0.1 0.1 0.1 0.1 0.1 0.1 0.1 0.1 0.1 0.1 0.1 0.1 0.1 0.1 0.1 0.1 0.1 0.1 0.1 0.1 0.1 0.1 0.1 0.1 0.1 0.1 0.1 0.1 0.1 0.1 0.1 0.1 0.1 0.1 0.1 0.1 0.1 0.1 0.1 0.1 0.1 0.1 0.1 0.1 0.1 0.1 0.1 0.1 0.1 0.1 0.1 0.1 0.1 0.1 0.1 0.1 0.1 0.1 0.1 0.1 0.1 0.1 0.1 0.1 0.1 0.1 0.1 0.1 0.1 0.1 0.1 0.1 0.1 0.1 0.1 0.1 0.1 0.1 0.1 0.1 0.1 0.1 0.1 0.1 0.1 0.1 0.1 0.1 0.1 0.1 0.1 0.1 0.1 0.1 0.1 0.1 0.1 0.1 0.1 0.1 0.1 0.1 0.1 0.1 0.1 0.1 0.1 0.1 0.1 0.1 0.1 0.1 0.1 0.1 0.1 0.1 0.1 0.1 0.1 0.1 0.1 0.1 0.1 0.1 0.1 0.1 0.1 0.1 0.1 0.1 0.1 0.1 0.1 0.1 0.1 0.1 0.1 0.1 0.1 0.1 0.1 0.1 0.1 0.1 0.1 0.1 0.1 0.1 0.1 0.1 0.1 0.1 0.1 0.1 0.1 0.1 0.1 0.1 0.1 0.1 0.1 0.1 0.1 0.1 0.1 0.1 0.1 0.1 0.1 0.1 0.1 0.1 0.1 0.1 0.1 0.1 0.1 0.1 0.1 0.1 0.1 0.1 0.1 0.1 0.1 0.1 0.1 0.1 0.1 0.1 0.1 0.1 0.1 0.1 0.1 0.1 0.1 0.1 0.1 0.1 0.1 0.1 0.1 0.1 0.1 0.1 0.1 0.1 0.1 0.1 0.1 0.1 0.1 0.1 0.1 0.1 0.1 0.1 0.1 0.1 0.1 0.1 0.1 0.1 0.1 0.1 0.1 0.1 0.1 0.1 0.1 0.1 0.1 0.1 0.1 
</DataArray>

<DataArray type="Float32" Name="Density" format="ascii">
1000.01 1000.02 1000.02 1000.01 1000.01 1000.01 1000.01 1000.01 1000.01 1000.01 1000.01 1000.01 1000.01 1000.01 1000.01 1000.01 1000.01 1000.01 1000.01 1000.01 1000.01 1000.01 1000.01 1000.01 1000.01 1000.01 1000.01 1000.01 1000.01 1000.01 1000.01 1000.01 1000.01 1000.01 1000.01 1000.01 1000.01 1000.02 1000.02 1000.02 1000.02 1000.02 1000.02 1000.02 1000.01 1000.01 1000.01 1000.01 1000.01 1000.01 1000.01 1000.01 1000.01 1000.01 1000.01 1000.01 1000.01 1000.01 1000.01 1000.01 1000.01 1000.01 1000.01 1000.01 1000.01 1000.01 1000.01 1000.01 1000.01 1000.01 1000.01 1000.01 1000.01 1000.01 1000.01 1000.01 1000.01 1000.01 1000.02 1000.02 1000.01 1000.02 1000.02 1000.02 1000.03 1000.01 1000.01 1000.01 1000.01 1000.01 1000.01 1000.01 1000.01 1000.01 1000.01 1000.01 1000.01 1000.01 1000.01 1000.01 1000.01 1000.01 1000.01 1000.01 1000.01 1000.01 1000.01 1000.01 1000.01 1000.01 1000.01 1000.01 1000.01 1000.01 1000.01 1000.01 1000.01 1000.01 1000.01 1000.02 1000.02 1000.02 1000.02 1000.01 1000.01 1000.01 1000.01 1000.01 1000 1000.01 1000.01 1000 1000 1000.01 1000.01 1000.01 1000 1000.01 1000.01 1000.01 1000.01 1000.01 1000 1000.01 1000.01 1000 1000 1000.01 1000.01 1000 1000.01 1000.01 1000 1000 1000.01 1000.01 1000 1000 1000.01 1000.01 1000.01 1000.02 1000.01 1000.02 1000.02 1000.02 1000.02 1000.01 1000 1000 1000 1000 1000 1000 1000 1000 1000 1000 1000 1000 1000 1000 1000 1000 1000 1000 1000 1000 1000 1000 1000 1000 1000 1000 1000 1000 1000 1000 1000 1000 1000 1000.01 1000.01 1000.01 1000.01 1000.01 1000.01 1000.01 1000 1000 1000 1000 1000 1000 1000 1000 1000 1000 1000 1000 1000 1000 1000 1000 1000 1000 1000 1000 1000 1000 1000 1000 1000 1000 1000 1000 1000 1000 1000 1000 1000 1000 1000 1000.01 1000.01 1000.01 1000.01 1000.01 1000.01 1000.01 1000 1000 1000 1000 1000 1000 1000 1000 1000 1000 1000 1000 1000 1000 1000 1000 1000 1000 1000 1000 1000 1000 1000 1000 1000 1000 1000 1000 1000 1000 1000 1000 1000 1000.01 1000.01 1000.01 1000.01 1000.01 1000.01 1000.01 1000.01 1000 1000 1000 1000 1000 1000 1000 1000 1000 1000 1000 1000 1000 1000 1000 1000 1000 1000 1000 1000 1000 1000 1000 1000 1000 1000 1000 1000 1000 1000 1000 1000 1000 1000.01 1000.01 1000.01 1000.01 1000.01 1000.01 1000.01 1000 1000 1000 1000 1000 1000 1000 1000 1000 1000 1000 1000 1000 1000 1000 1000 1000 1000 1000 1000 1000 1000 1000 1000 1000 1000 1000 1000 1000 1000 1000 1000 1000 1000 1000 1000.01 1000.01 1000.01 1000.01 1000.01 1000.01 1000 1000 1000 1000 1000 1000 1000 1000 1000 1000 1000 1000 1000 1000 1000 1000 1000 1000 1000 1000 1000 1000 1000 1000 1000 1000 1000 1000 1000 1000 1000 1000 1000 1000 1000 1000.01 1000.01 1000.01 1000.01 1000.01 1000.01 1000.01 1000 1000 1000 1000 1000 1000 1000 1000 1000 1000 1000 1000 1000 1000 1000 1000 1000 1000 1000 1000 1000 1000 1000 1000 1000 1000 1000 1000 1000 1000 1000 1000 1000 1000.01 1000.01 1000.01 1000.01 1000.01 1000.01 1000.01 1000.01 1000 1000 1000 1000 1000 1000 1000 1000 1000 1000 1000 1000 1000 1000 1000 1000 1000 1000 1000 1000 1000 1000 1000 1000 1000 1000 1000 1000 1000 1000 1000 1000 1000 1000.01 1000.01 1000.01 1000.01 1000.01 1000.01 1000.01 1000.01 1000 1000 1000 1000 1000 1000 1000 1000 1000 1000 1000 1000 1000 1000 1000 1000 1000 1000 1000 1000 1000 1000 1000 1000 1000 1000 1000 1000 1000 1000 1000 1000 1000 1000.01 1000.01 1000.01 1000.01 1000.01 1000.01 1000.01 1000 1000 1000 1000 1000 1000 1000 1000 1000 1000 1000 1000 1000 1000 1000 1000 1000 1000 1000 1000 1000 1000 1000 1000 1000 1000 1000 1000 1000 1000 1000 1000 1000 1000 1000 1000.01 1000.01 1000.01 1000.01 1000.01 1000.01 1000.01 1000 1000 1000 1000 1000 1000 1000 1000 1000 1000 1000 1000 1000 1000 1000 1000 1000 1000 1000 1000 1000 1000 1000 1000 1000 1000 1000 1000 1000 1000 1000 1000 1000 1000.01 1000.01 1000.01 1000.01 1000.01 1000.01 1000.01 1000.01 1000 1000 1000 1000 1000 1000 1000 1000 1000 1000 1000 1000 1000 1000 1000 1000 1000 1000 1000 1000 1000 1000 1000 1000 1000 1000 1000 1000 1000 1000 1000 1000 1000 1000.01 1000.01 1000.01 1000.01 1000.01 1000.01 1000.01 1000.01 1000 1000 1000 1000 1000 1000 1000 1000 1000 1000 1000 1000 1000 1000 1000 1000 1000 1000 1000 1000 1000 1000 1000 1000 1000 1000 1000 1000 1000 1000 1000 1000 1000 1000.01 1000.01 1000.01 1000.01 1000.01 1000.01 1000.01 1000.01 1000 1000 1000 1000 1000 1000 1000 1000 1000 1000 1000 1000 1000 1000 1000 1000 1000 1000 1000 1000 1000 1000 1000 1000 1000 1000 1000 1000 1000 1000 1000 1000 1000 1000.01 1000.01 1000.01 1000.01 1000.01 1000.01 1000.01 1000.01 1000 1000 1000 1000 1000 1000 1000 1000 1000 1000 1000 1000 1000 1000 1000 1000 1000 1000 1000 1000 1000 1000 1000 1000 1000 1000 1000 1000 1000 1000 1000 1000 1000 1000.01 1000.01 1000.01 1000.01 1000.01 1000.01 1000.01 1000 1000 1000 1000 1000 1000 1000 1000 1000 1000 1000 1000 1000 1000 1000 1000 1000 1000 1000 1000 1000 1000 1000 1000 1000 1000 1000 1000 1000 1000 1000 1000 1000 1000 1000 1000.01 1000.01 1000.01 1000.01 1000.01 1000.01 1000.01 1000 1000 1000 1000 1000 1000 1000 1000 1000 1000 1000 1000 1000 1000 1000 1000 1000 1000 1000 1000 1000 1000 1000 1000 1000 1000 1000 1000 1000 1000 1000 1000 1000 1000.01 1000.01 1000.01 1000.01 1000.01 1000.01 1000.01 1000.01 1000 1000 1000 1000 1000 1000 1000 1000 1000 1000 1000 1000 1000 1000 1000 1000 1000 1000 1000 1000 1000 1000 1000 1000 1000 1000 1000 1000 1000 1000 1000 1000 1000 1000.01 1000.01 1000.01 1000.01 1000.01 1000.01 1000.01 1000 1000 1000 1000 1000 1000 1000 1000 1000 1000 1000 1000 1000 1000 1000 1000 1000 1000 1000 1000 1000 1000 1000 1000 1000 1000 1000 1000 1000 1000 1000 1000 1000 1000 1000 1000.01 1000.01 1000.01 1000.01 1000.01 1000.01 1000 1000 1000 1000 1000 1000 1000 1000 1000 1000 1000 1000 1000 1000 1000 1000 1000 1000 1000 1000 1000 1000 1000 1000 1000 1000 1000 1000 1000 1000 1000 1000 1000 1000 1000 1000.01 1000.01 1000.01 1000.01 1000.01 1000.01 1000.01 1000 1000 1000 1000 1000 1000 1000 1000 1000 1000 1000 1000 1000 1000 1000 1000 1000 1000 1000 1000 1000 1000 1000 1000 1000 1000 1000 1000 1000 1000 1000 1000 1000 1000.01 1000.01 1000.01 1000.01 1000.01 1000.01 1000.01 1000.01 1000 1000 1000 1000 1000 1000 1000 1000 1000 1000 1000 1000 1000 1000 1000 1000 1000 1000 1000 1000 1000 1000 1000 1000 1000 1000 1000 1000 1000 1000 1000 1000 1000 1000.01 1000.01 1000.01 1000.01 1000.01 1000.01 1000.01 1000 1000 1000 1000 1000 1000 1000 1000 1000 1000 1000 1000 1000 1000 1000 1000 1000 1000 1000 1000 1000 1000 1000 1000 1000 1000 1000 1000 1000 1000 1000 1000 1000 1000 1000 1000.01 1000.01 1000.01 1000.01 1000.01 1000.01 1000.01 1000 1000 1000 1000 1000 1000 1000 1000 1000 1000 1000 1000 1000 1000 1000 1000 1000 1000 1000 1000 1000 1000 1000 1000 1000 1000 1000 1000 1000 1000 1000 1000 1000 1000.01 1000.01 1000.01 1000.01 1000.01 1000.01 1000.01 1000.01 1000 1000 1000 1000 1000 1000 1000 1000 1000 1000 1000 1000 1000 1000 1000 1000 1000 1000 1000 1000 1000 1000 1000 1000 1000 1000 1000 1000 1000 1000 1000 1000 1000 1000.01 1000.01 1000.01 1000.01 1000.01 1000.01 1000.01 1000 1000 1000 1000 1000 1000 1000 1000 1000 1000 1000 1000 1000 1000 1000 1000 1000 1000 1000 1000 1000 1000 1000 1000 1000 1000 1000 1000 1000 1000 1000 1000 1000 1000 1000 1000.01 1000.01 1000.01 1000.01 1000.01 1000.01 1000 1000 1000 1000 1000 1000 1000 1000 1000 1000 1000 1000 1000 1000 1000 1000 1000 1000 1000 1000 1000 1000 1000 1000 1000 1000 1000 1000 1000 1000 1000 1000 1000 1000 1000 1000.01 1000.01 1000.01 1000.01 1000.01 1000.01 1000.01 1000 1000 1000 1000 1000 1000 1000 1000 1000 1000 1000 1000 1000 1000 1000 1000 1000 1000 1000 1000 1000 1000 1000 1000 1000 1000 1000 1000 1000 1000 1000 1000 1000 1000.01 1000.01 1000.01 1000.01 1000.01 1000.01 1000.01 1000.01 1000 1000 1000 1000 1000 1000 1000 1000 1000 1000 1000 1000 1000 1000 1000 1000 1000 1000 1000 1000 1000 1000 1000 1000 1000 1000 1000 1000 1000 1000 1000 1000 1000 1000.01 1000.01 1000.01 1000.01 1000.01 1000.01 1000.01 1000 1000 1000 1000 1000 1000 1000 1000 1000 1000 1000 1000 1000 1000 1000 1000 1000 1000 1000 1000 1000 1000 1000 1000 1000 1000 1000 1000 1000 1000 1000 1000 1000 1000 1000 1000.01 1000.01 1000.01 1000.01 1000.01 1000.01 1000 1000 1000 1000 1000 1000 1000 1000 1000 1000 1000 1000 1000 1000 1000 1000 1000 1000 1000 1000 1000 1000 1000 1000 1000 1000 1000 1000 1000 1000 1000 1000 1000 1000 1000 1000.01 1000.01 1000.01 1000.01 1000.01 1000.01 1000.01 1000 1000 1000 1000 1000 1000 1000 1000 1000 1000 1000 1000 1000 1000 1000 1000 1000 1000 1000 1000 1000 1000 1000 1000 1000 1000 1000 1000 1000 1000 1000 1000 1000 1000.01 1000.01 1000.01 1000.01 1000.01 1000.01 1000.01 1000.01 1000 1000 1000 1000 1000 1000 1000 1000 1000 1000 1000 1000 1000 1000 1000 1000 1000 1000 1000 1000 1000 1000 1000 1000 1000 1000 1000 1000 1000 1000 1000 1000 1000 1000.01 1000.01 1000.01 1000.01 1000.02 1000.02 1000.02 1000.01 1000.01 1000 1000.01 1000.01 1000 1000 1000.01 1000.01 1000.01 1000 1000.01 1000.01 1000.01 1000.01 1000.01 1000 1000.01 1000.01 1000 1000 1000.01 1000.01 1000 1000.01 1000.01 1000 1000 1000.01 1000.01 1000 1000 1000.01 1000.01 1000.01 1000.02 1000.02 1000.02 1000.02 1000.02 1000.02 1000.02 1000.01 1000.01 1000.01 1000.01 1000.01 1000.01 1000.01 1000.01 1000.01 1000.01 1000.01 1000.01 1000.01 1000.01 1000.01 1000.01 1000.01 1000.01 1000.01 1000.01 1000.01 1000.01 1000.01 1000.01 1000.01 1000.01 1000.01 1000.01 1000.01 1000.01 1000.01 1000.01 1000.01 1000.02 1000.02 1000.02 1000.02 1000.02 1000.01 1000.02 1000.01 1000.01 1000.01 1000.01 1000.01 1000.01 1000.01 1000.01 1000.01 1000.01 1000.01 1000.01 1000.01 1000.01 1000.01 1000.01 1000.01 1000.01 1000.01 1000.01 1000.01 1000.01 1000.01 1000.01 1000.01 1000.01 1000.01 1000.01 1000.01 1000.01 1000.01 1000.01 1000.01 1000.01 1000.02 1000.02 1000.01 1000.02 1000.02 1000.02 1000.02 1000.02 1000.01 1000.01 1000.01 1000.01 1000.01 1000.01 1000.01 1000.01 1000.01 1000.01 1000.01 1000.01 1000.01 1000.01 1000.01 1000.01 1000.01 1000.01 1000.01 1000.01 1000.01 1000.01 1000.01 1000.01 1000.01 1000.01 1000.01 1000.01 1000.01 1000.01 1000.01 1000.01 1000.01 1000.02 1000.02 1000.02 1000.01 1000 1000 1000 1000 1000 1000 1000 1000 1000 1000 1000 1000 1000 1000 1000 1000 1000 1000 1000 1000 1000 1000 1000 1000 1000 1000 1000 1000 1000 1000 1000 1000 1000 1000 1000 1000 1000 1000 1000 1000 1000 1000 1000 1000 1000 1000 1000 1000 1000 1000 1000 1000 1000 1000 1000 1000 1000 1000 1000 1000 1000 1000 1000 1000 1000 1000 1000 1000 1000 1000 1000 1000 1000 1000 1000 1000 1000 1000 1000 1000 1000 1000 1000 1000 1000 1000 1000 1000 1000 1000 1000 1000 1000 1000 1000 1000 1000 1000 1000 1000 1000 1000 1000 1000 1000 1000 1000 1000 1000 1000 1000 1000 1000 1000 1000 1000 1000 1000 1000 1000 1000 1000 1000 1000 1000 1000 1000 1000 1000 1000 1000 1000 1000 1000 1000 1000 1000 1000 1000 1000 1000 1000 1000 1000 1000 1000 1000 1000 1000 1000 1000 1000 1000 1000 1000 1000 1000 1000 1000 1000 1000 1000 1000 1000 1000 1000 1000 1000 1000 1000 1000 1000 1000 1000 1000 1000 1000 1000 1000 1000 1000 1000 1000 1000 1000 1000 1000 1000 1000 1000 1000 1000 1000 1000 1000 1000 1000 1000 1000 1000 1000 1000 1000 1000 1000 1000 1000 1000 1000 1000 1000 1000 1000 1000 1000 1000 1000 1000 1000 1000 1000 1000 1000 1000 1000 1000 1000 1000 1000 1000 1000 1000 1000 1000 1000 1000 1000 1000 1000 1000 1000 1000 1000 1000 1000 1000 1000 1000 1000 1000 1000 1000 1000 1000 1000 1000 1000 1000 1000 1000 1000 1000 1000 1000 1000 1000 1000 1000 1000 1000 1000 1000 1000 1000 1000 1000 1000 1000 1000 1000 1000 1000 1000 1000 1000 1000 1000 1000 1000 1000 1000 1000 1000 1000 1000 1000 1000 1000 1000 1000 1000 1000 1000 1000 1000 1000 1000 1000 1000 1000 1000 1000 1000 1000 1000 1000 1000 1000 1000 1000 1000 1000 1000 1000 1000 1000 1000 1000 
</DataArray>
<DataArray type="Float32" Name="Velocity" NumberOfComponents="3" format="ascii">
0.0043107271 0.0061542611 0
0.00061468914 0.0058514718 0
-7.3288036e-05 0.0056923605 0
9.8911274e-05 0.0049093431 0
4.5892575e-06 0.0041664564 0
4.680634e-06 0.002939468 0
6.1899937e-07 0.0041778143 0
1.1412076e-06 0.0041778106 0
8.4757897e-07 0.0029453312 0
-1.0791381e-06 0.0029437845 0
-1.0789348e-06 0.0041778102 0
6.7467425e-08 0.004177812 0
5.4355041e-07 0.0041778088 0
2.8326011e-10 0.0051022819 0
4.1384914e-07 0.0041778111 0
-3.215662e-07 0.004177812 0
-4.3940403e-08 0.004177812 0
-1.0309572e-07 0.004177812 0
1.4459522e-06 0.004177805 0
-3.5647457e-07 0.0029397542 0
1.2541945e-07 0.0041778111 0
5.7427883e-07 0.0041778139 0
8.2798374e-07 0.0029356536 0
-8.3381479e-07 0.0029356538 0
-6.622821e-07 0.0041778106 0
3.5142429e-07 0.0041778111 0
2.6943783e-15 0.0029397465 0
-3.5142429e-07 0.0041778111 0
6.622821e-07 0.0041778106 0
8.3381252e-07 0.0029356538 0
-8.3371344e-07 0.0029356538 0
-6.6306313e-07 0.0041778106 0
6.6351151e-07 0.0041778106 0
8.445412e-07 0.0029356536 0
-7.830148e-07 0.0029356524 0
-2.5524894e-06 0.0041778083 0
-8.3589754e-07 0.0041778646 0
-0.00012376255 0.0029515175 0
-0.00076191092 0.0041433247 0
-0.00053418532 0.0039389632 0
-0.0045623169 0.0044037886 0
0.0040606749 0.001104901 0
0.00093966036 0.0012179347 0
0.00033371645 0.00099479849 0
0.0001395687 0.0011323477 0
2.6306105e-05 0.001186776 0
-2.6481292e-08 0.00089125923 0
8.94707e-07 0.00118797 0
-1.0075714e-06 0.0011879684 0
-7.1449887e-07 0.001084549 0
2.7540179e-07 0.0010843767 0
1.246392e-06 0.0011879754 0
-3.9357442e-07 0.0011879591 0
1.6144725e-07 0.0011879579 0
1.6993823e-08 0.0014355284 0
-4.9369424e-07 0.0011879582 0
-1.7011862e-07 0.0011879591 0
-1.7334388e-08 0.0011879591 0
4.5737943e-07 0.0011879605 0
-8.4494354e-07 0.0011879676 0
-1.8760442e-09 0.00089126779 0
9.2168102e-07 0.0011879748 0
-1.0104927e-06 0.0011879763 0
-9.0363415e-07 0.0010844916 0
9.0216088e-07 0.0010844916 0
9.999269e-07 0.0011879761 0
-9.331132e-07 0.0011879748 0
6.1845636e-15 0.00089126336 0
9.331132e-07 0.0011879748 0
-9.999269e-07 0.0011879761 0
-9.0216088e-07 0.0010844916 0
9.0218418e-07 0.0010844916 0
1.0006397e-06 0.0011879761 0
-9.9902013e-07 0.0011879764 0
-8.9881325e-07 0.0010844914 0
9.208722e-07 0.001084491 0
1.052939e-06 0.001187978 0
-6.9186071e-06 0.0011881626 0
-0.0001554683 0.0010437327 0
-0.00049975544 0.00073022826 0
-0.00082891283 0.00082950323 0
-0.0038776677 0.00049595209 0
0.0038419934 0.00037865102 0
0.00087979366 0.00040530085 0
0.00055854389 0.00021879087 0
0.00018139323 0.00013657608 0
1.5426522e-05 0.00013623372 0
4.9358373e-06 9.5398325e-05 0
3.7758778e-06 0.00013592435 0
3.3541082e-06 0.00013580956 0
3.0173346e-06 9.9887984e-05 0
3.2288585e-07 9.9939614e-05 0
7.0573907e-07 0.00013576038 0
3.9257714e-08 0.00013568721 0
7.9870671e-07 0.00013567171 0
9.0504635e-08 0.00015756543 0
-5.4481518e-07 0.00013568232 0
-1.9991884e-07 0.00013568721 0
7.0722955e-08 0.00013568721 0
4.1687514e-07 0.00013568724 0
1.606479e-07 0.00013568954 0
3.3737086e-07 9.5921707e-05 0
9.861666e-08 0.00013568693 0
-8.1234799e-07 0.00013571038 0
-9.3002285e-07 9.9877441e-05 0
2.1258556e-06 9.9900106e-05 0
9.0485344e-08 0.00013568754 0
-2.7740003e-07 0.00013568781 0
-1.9718671e-15 9.592493e-05 0
2.7740003e-07 0.00013568781 0
-9.0485344e-08 0.00013568754 0
-2.1258556e-06 9.9900106e-05 0
9.1915194e-07 9.9870587e-05 0
-1.1939254e-06 0.00013571708 0
-2.0775135e-06 0.00013579197 0
-2.2414697e-06 9.979582e-05 0
-5.0814238e-06 9.9684854e-05 0
-4.2382048e-06 0.00013590371 0
-8.5148868e-06 0.00013609941 0
-0.00023777261 9.6948708e-05 0
-0.00041040537 0.00037157559 0
-0.00067944615 0.00050117471 0
-0.004021456 0.00056554831 0
0.0042326343 0.0003033141 0
0.00097192416 0.00022591538 0
0.00038514173 9.0542533e-05 0
0.00011405056 7.5367767e-05 0
1.4411149e-05 6.222551e-05 0
7.940244e-07 5.1901825e-06 0
9.6002702e-07 6.3730651e-05 0
3.3426414e-07 6.3726227e-05 0
4.3898388e-07 5.2159048e-06 0
-5.0412842e-07 5.2171777e-06 0
-1.7022218e-07 6.3724954e-05 0
-9.9768428e-08 6.3724176e-05 0
6.3740856e-07 6.3723885e-05 0
7.2838618e-10 9.4809999e-05 0
-7.2286264e-07 6.3723972e-05 0
-3.6195991e-07 6.372419e-05 0
-1.0822387e-07 6.3724176e-05 0
-2.9980729e-08 6.3724168e-05 0
2.9264626e-08 6.3727144e-05 0
7.4086977e-08 5.1980883e-06 0
4.1884749e-07 6.3727814e-05 0
4.4479262e-07 6.3724779e-05 0
3.6815078e-07 5.2147434e-06 0
-3.6834285e-07 5.2147848e-06 0
-4.4642752e-07 6.3724641e-05 0
1.372632e-07 6.3725296e-05 0
3.71081e-16 5.202623e-06 0
-1.372632e-07 6.3725296e-05 0
4.4642752e-07 6.3724641e-05 0
3.6834277e-07 5.2147848e-06 0
-3.6833995e-07 5.2147811e-06 0
3.1163371e-08 6.3724656e-05 0
-3.0978853e-08 6.3724707e-05 0
3.6771937e-07 5.2147279e-06 0
-1.9948091e-06 5.208396e-06 0
-2.7987846e-06 6.3730993e-05 0
-2.9623523e-06 6.3797837e-05 0
-0.00014312234 6.7734902e-05 0
-0.00010364112 0.00025677515 0
-0.0011391478 0.00016140859 0
-0.0042015272 0.00025266744 0
0.0042152773 0.00025740356 0
0.0010983441 0.00024279524 0
0.00018181742 0.00020868699 0
0.00013356787 2.9824276e-05 0
5.1315719e-06 2.6433333e-06 0
4.3255941e-09 1.2241538e-08 0
-4.8075917e-09 2.6894261e-06 0
4.7353543e-09 2.6894231e-06 0
-8.6117027e-14 1.2260669e-08 0
1.707027e-13 1.2260088e-08 0
-4.7163944e-09 2.6894236e-06 0
4.6556159e-09 2.689422e-06 0
-1.4557975e-07 2.6893581e-06 0
0 2.9283598e-05 0
1.4556923e-07 2.6893581e-06 0
-4.6293556e-09 2.689422e-06 0
4.7521769e-09 2.689422e-06 0
-4.7977138e-09 2.689422e-06 0
4.7450803e-09 2.6894254e-06 0
-5.5048075e-14 1.2245058e-08 0
-4.7806754e-09 2.6894247e-06 0
4.7414566e-09 2.6894231e-06 0
-1.9290486e-13 1.2260107e-08 0
1.9290606e-13 1.2260137e-08 0
-4.7414566e-09 2.6894231e-06 0
4.7788395e-09 2.6894238e-06 0
0 1.2247432e-08 0
-4.7788395e-09 2.6894238e-06 0
4.7414566e-09 2.6894231e-06 0
-1.9290606e-13 1.2260137e-08 0
1.9290605e-13 1.2260136e-08 0
-4.7630513e-09 2.6894231e-06 0
4.7630513e-09 2.6894231e-06 0
-1.9290519e-13 1.226012e-08 0
2.8620677e-13 1.2256948e-08 0
-7.0355002e-09 2.6894259e-06 0
-2.5639074e-06 2.7073913e-06 0
-6.2115119e-05 4.3431946e-06 0
-0.00013613117 1.839256e-05 0
-0.0011869477 3.8449245e-05 0
-0.0041662855 5.477975e-05 0
0.002955392 1.8557796e-05 0
0.00108861 1.2709258e-05 0
0.000100213 1.58412e-05 0
8.1463868e-06 1.0532807e-05 0
1.2566989e-07 2.4459179e-09 0
1.5799308e-11 0 0
-4.7746509e-09 2.6052509e-09 0
4.7746509e-09 2.6052489e-09 0
0 0 0
0 0 0
-4.7746509e-09 2.6052496e-09 0
4.7746509e-09 2.6052485e-09 0
-4.7746354e-09 2.605177e-09 0
0 8.5199719e-07 0
4.7746354e-09 2.605177e-09 0
-4.7746509e-09 2.6052485e-09 0
4.7746509e-09 2.6052485e-09 0
-4.7746509e-09 2.6052485e-09 0
4.7746509e-09 2.6052502e-09 0
0 0 0
-4.7746562e-09 2.6052496e-09 0
4.7746562e-09 2.6052489e-09 0
0 0 0
0 0 0
-4.7746562e-09 2.6052489e-09 0
4.7746562e-09 2.6052496e-09 0
0 0 0
-4.7746562e-09 2.6052496e-09 0
4.7746562e-09 2.6052489e-09 0
0 0 0
0 0 0
-4.7746562e-09 2.6052489e-09 0
4.7746562e-09 2.6052489e-09 0
0 0 0
0 0 0
-4.7746562e-09 2.6052502e-09 0
-2.6067704e-09 2.6118716e-09 0
-5.2091827e-06 9.0888381e-07 0
-9.9514546e-05 5.0903172e-06 0
-0.001084428 4.0264135e-07 0
-0.0029433817 5.5252781e-06 0
0.0041778139 6.1411896e-07 0
0.0011879865 1.7721029e-06 0
0.00013596496 5.1730394e-06 0
6.3733256e-05 1.1373746e-06 0
2.6894279e-06 -4.8267581e-09 0
2.6052516e-09 -4.7746509e-09 0
-4.7746509e-09 -4.7746509e-09 0
4.7746509e-09 -4.7746509e-09 0
0 -4.7746509e-09 0
0 -4.7746509e-09 0
-4.7746509e-09 -4.7746509e-09 0
4.7746509e-09 -4.7746509e-09 0
-4.7746509e-09 -4.7746509e-09 0
0 -4.3625921e-09 0
4.7746509e-09 -4.7746509e-09 0
-4.7746509e-09 -4.7746509e-09 0
4.7746509e-09 -4.7746509e-09 0
-4.7746509e-09 -4.7746509e-09 0
4.7746509e-09 -4.7746509e-09 0
0 -4.7746509e-09 0
-4.7746562e-09 -4.7746509e-09 0
4.7746562e-09 -4.7746509e-09 0
0 -4.7746509e-09 0
0 -4.7746509e-09 0
-4.7746562e-09 -4.7746509e-09 0
4.7746562e-09 -4.7746509e-09 0
0 -4.7746509e-09 0
-4.7746562e-09 -4.7746509e-09 0
4.7746562e-09 -4.7746509e-09 0
0 -4.7746509e-09 0
0 -4.7746509e-09 0
-4.7746562e-09 -4.7746509e-09 0
4.7746562e-09 -4.7746509e-09 0
0 -4.7746509e-09 0
0 -4.7746509e-09 0
-7.3452142e-09 -4.7746509e-09 0
-2.6799016e-06 -4.8078026e-09 0
-6.3734682e-05 7.8557377e-07 0
-0.00013595987 4.2302677e-06 0
-0.0011879506 1.3364039e-06 0
-0.0041778078 6.2025788e-07 0
0.0041778106 1.1360075e-06 0
0.0011879685 -1.0107258e-06 0
0.000135825 3.4981215e-06 0
6.3726387e-05 8.0836514e-07 0
2.6894236e-06 4.7208295e-09 0
2.6052491e-09 4.7746509e-09 0
-4.7746509e-09 4.7746509e-09 0
4.7746509e-09 4.7746509e-09 0
0 4.7746509e-09 0
0 4.7746509e-09 0
-4.7746509e-09 4.7746509e-09 0
4.7746509e-09 4.7746509e-09 0
-4.7746509e-09 4.7746509e-09 0
0 4.7746509e-09 0
4.7746509e-09 4.7746509e-09 0
-4.7746509e-09 4.7746509e-09 0
4.7746509e-09 4.7746509e-09 0
-4.7746509e-09 4.7746509e-09 0
4.7746509e-09 4.7746509e-09 0
0 4.7746509e-09 0
-4.7746562e-09 4.7746509e-09 0
4.7746562e-09 4.7746509e-09 0
0 4.7746509e-09 0
0 4.7746509e-09 0
-4.7746562e-09 4.7746509e-09 0
4.7746562e-09 4.7746509e-09 0
0 4.7746509e-09 0
-4.7746562e-09 4.7746509e-09 0
4.7746562e-09 4.7746509e-09 0
0 4.7746509e-09 0
0 4.7746509e-09 0
-4.7746562e-09 4.7746509e-09 0
4.7746562e-09 4.7746509e-09 0
0 4.7746509e-09 0
0 4.7746509e-09 0
-7.345212e-09 4.7746509e-09 0
-2.6798982e-06 4.7390127e-09 0
-6.3729727e-05 6.1568221e-07 0
-0.00013582957 3.9219731e-06 0
-0.0011879414 -1.0093538e-06 0
-0.0041778046 1.1442231e-06 0
0.0029453312 8.4269055e-07 0
0.0010845489 -7.1621281e-07 0
9.9872617e-05 2.5495615e-06 0
5.2157461e-06 6.2037492e-07 0
1.2259624e-08 -1.13059e-13 0
0 0 0
-4.7746509e-09 0 0
4.7746509e-09 0 0
0 0 0
0 0 0
-4.7746509e-09 0 0
4.7746509e-09 0 0
-4.7746509e-09 0 0
0 0 0
4.7746509e-09 0 0
-4.7746509e-09 0 0
4.7746509e-09 0 0
-4.7746509e-09 0 0
4.7746509e-09 0 0
0 0 0
-4.7746562e-09 0 0
4.7746562e-09 0 0
0 0 0
0 0 0
-4.7746562e-09 0 0
4.7746562e-09 0 0
0 0 0
-4.7746562e-09 0 0
4.7746562e-09 0 0
0 0 0
0 0 0
-4.7746562e-09 0 0
4.7746562e-09 0 0
0 0 0
0 0 0
-4.7746562e-09 0 0
-2.6155667e-09 -8.5644972e-14 0
-5.2222013e-06 7.5181845e-08 0