<?xml version="1.0" ?>

<VTKFile type="UnstructuredGrid" version="0.1" byte_order="BigEndian">

<UnstructuredGrid>

<Piece NumberOfPoints= " 2009 " NumberOfCells=" 2009 ">

<PointData Scalars="Pressure" Vectors="Velocity">

<DataArray type="Float32" Name="Pressure" format="ascii">

7.83225 14.1627 12.6606 10.6219 10.4073 14.1627 7.0812 7.0812 6.75932 6.75932 7.0812 7.0812 7.0812 6.65203 7.0812 7.0812 7.0812 7.0812 7.0812 6.65203 7.0812 7.0812 6.75932 6.75932 7.0812 7.0812 6.65203 7.0812 7.0812 6.75932 6.75932 7.0812 7.0812 6.75932 7.51037 10.5146 10.7292 7.93955 11.373 9.33438 11.373 16.3087 19.4205 16.9525 10.3 10.6219 10.5146 9.54897 9.22708 8.69061 8.69061 9.22708 9.11979 9.11979 7.93955 9.11979 9.11979 9.11979 9.11979 9.22708 4.07701 9.22708 9.22708 8.69061 8.69061 9.22708 9.22708 4.07701 9.22708 9.22708 8.69061 8.69061 9.22708 9.22708 8.69061 8.69061 16.9525 8.04684 9.76356 14.1627 14.6992 6.00827 17.1671 15.2357 15.8795 9.76356 8.26143 12.9825 4.1843 4.1843 7.83225 7.83225 4.07701 4.07701 4.07701 1.07289 4.07701 4.07701 4.07701 4.07701 4.07701 4.50618 4.07701 4.07701 7.83225 7.83225 4.07701 4.07701 4.50618 4.07701 4.07701 7.83225 7.83225 4.1843 4.1843 7.93955 7.93955 12.2314 5.47181 6.86661 16.5233 12.7679 16.416 14.9138 12.7679 11.2657 3.96972 2.36036 15.9868 3.96972 3.11139 4.82805 4.72076 3.11139 3.11139 3.0041 7.29579 3.0041 3.0041 3.0041 3.0041 3.11139 3.86243 3.11139 3.11139 4.72076 4.72076 3.11139 3.11139 3.86243 3.11139 3.11139 4.72076 4.72076 3.11139 3.11139 4.72076 5.47181 12.8752 3.11139 6.11556 7.40308 10.7292 12.5533 8.26143 9.76356 8.04684 0.75102 0.965598 9.65626 1.39476 0 3.21869 3.21869 0 0 0 0.107288 0 0 0 0 0 3.11139 0 0 3.11139 3.11139 0 0 3.11139 0 0 3.11139 3.11139 0 0 3.11139 3.75514 8.26143 0.536443 6.11556 5.79368 8.58331 7.83225 9.97815 5.79368 5.90098 3.64785 9.76356 1.82391 6.43744 6.43744 0 0 6.43744 6.43744 6.43744 0.214577 6.43744 6.43744 6.43744 6.43744 6.43744 0 6.43744 6.43744 0 0 6.43744 6.43744 0 6.43744 6.43744 0 0 6.43744 6.43744 0 2.46765 8.58331 10.7292 9.76356 14.27 14.5919 10.9438 7.61767 10.7292 6.11556 10.7292 1.71662 7.0812 2.14578 1.28747 0 0 1.28747 1.28747 1.28747 3.64785 1.28747 1.28747 1.28747 1.28747 1.28747 0 1.28747 1.28747 0 0 1.28747 1.28747 0 1.28747 1.28747 0 0 1.28747 1.28747 0 3.64785 8.7979 1.07289 3.54056 4.1843 9.54897 10.3 7.72496 10.9438 11.2657 4.50618 0.107288 6.75932 1.18018 0 0 0 0 0 0 3.32598 0 0 0 0 0 0 0 0 0 0 0 0 0 0 0 0 0 0 0 0 1.28747 6.43744 0 3.11139 4.1843 9.22708 7.0812 6.75932 12.5533 11.6949 4.82805 3.32598 4.39889 2.46765 0 0 0 0 0 0 0 0 0 0 0 0 0 0 0 0 0 0 0 0 0 0 0 0 0 0 0 0 0 3.21869 4.82805 7.83225 8.69061 6.75932 6.75932 8.69061 7.83225 4.82805 3.21869 0 0 0 0 0 0 0 0 0 0 0 0 0 0 0 0 0 0 0 0 0 0 0 0 0 0 0 0 0 0 0 3.21869 4.72076 7.83225 8.69061 6.75932 7.0812 9.22708 4.07701 3.11139 0 6.43744 1.28747 0 0 0 0 0 0 0 0 0 0 0 0 0 0 0 0 0 0 0 0 0 0 0 0 0 0 0 1.28747 6.43744 0 3.11139 4.07701 9.22708 7.0812 7.0812 9.11979 4.07701 3.11139 0 6.43744 1.28747 0 0 0 0 0 0 0 0 0 0 0 0 0 0 0 0 0 0 0 0 0 0 0 0 0 0 0 1.28747 6.43744 0 3.11139 4.07701 9.11979 7.0812 7.0812 9.11979 4.07701 3.0041 0 6.43744 1.28747 0 0 0 0 0 0 0 0 0 0 0 0 0 0 0 0 0 0 0 0 0 0 0 0 0 0 0 1.28747 6.43744 0 3.0041 4.07701 9.11979 7.0812 6.65203 7.93955 1.07289 7.29579 0.107288 0.214577 3.64785 3.32598 0 0 0 0 0 0 0 0 0 0 0 0 0 0 0 0 0 0 0 0 0 0 0 0 0 3.32598 3.64785 0.214577 0.107288 7.29579 1.07289 7.93955 6.65203 7.0812 9.11979 4.07701 3.0041 0 6.43744 1.28747 0 0 0 0 0 0 0 0 0 0 0 0 0 0 0 0 0 0 0 0 0 0 0 0 0 0 0 1.28747 6.43744 0 3.0041 4.07701 9.11979 7.0812 7.0812 9.11979 4.07701 3.0041 0 6.43744 1.28747 0 0 0 0 0 0 0 0 0 0 0 0 0 0 0 0 0 0 0 0 0 0 0 0 0 0 0 1.28747 6.43744 0 3.0041 4.07701 9.11979 7.0812 7.0812 9.11979 4.07701 3.0041 0 6.43744 1.28747 0 0 0 0 0 0 0 0 0 0 0 0 0 0 0 0 0 0 0 0 0 0 0 0 0 0 0 1.28747 6.43744 0 3.0041 4.07701 9.11979 7.0812 7.0812 9.11979 4.07701 3.0041 0 6.43744 1.28747 0 0 0 0 0 0 0 0 0 0 0 0 0 0 0 0 0 0 0 0 0 0 0 0 0 0 0 1.28747 6.43744 0 3.0041 4.07701 9.11979 7.0812 7.0812 9.22708 4.07701 3.11139 0 6.43744 1.28747 0 0 0 0 0 0 0 0 0 0 0 0 0 0 0 0 0 0 0 0 0 0 0 0 0 0 0 1.28747 6.43744 0 3.11139 4.07701 9.22708 7.0812 6.65203 4.07701 4.50618 3.86243 3.11139 0 0 0 0 0 0 0 0 0 0 0 0 0 0 0 0 0 0 0 0 0 0 0 0 0 0 0 0 0 0 0 3.11139 3.86243 4.50618 4.07701 6.65203 7.0812 9.22708 4.07701 3.11139 0 6.43744 1.28747 0 0 0 0 0 0 0 0 0 0 0 0 0 0 0 0 0 0 0 0 0 0 0 0 0 0 0 1.28747 6.43744 0 3.11139 4.07701 9.22708 7.0812 7.0812 9.22708 4.07701 3.11139 0 6.43744 1.28747 0 0 0 0 0 0 0 0 0 0 0 0 0 0 0 0 0 0 0 0 0 0 0 0 0 0 0 1.28747 6.43744 0 3.11139 4.07701 9.22708 7.0812 6.75932 8.69061 7.83225 4.72076 3.11139 0 0 0 0 0 0 0 0 0 0 0 0 0 0 0 0 0 0 0 0 0 0 0 0 0 0 0 0 0 0 0 3.11139 4.72076 7.83225 8.69061 6.75932 6.75932 8.69061 7.83225 4.72076 3.11139 0 0 0 0 0 0 0 0 0 0 0 0 0 0 0 0 0 0 0 0 0 0 0 0 0 0 0 0 0 0 0 3.11139 4.72076 7.83225 8.69061 6.75932 7.0812 9.22708 4.07701 3.11139 0 6.43744 1.28747 0 0 0 0 0 0 0 0 0 0 0 0 0 0 0 0 0 0 0 0 0 0 0 0 0 0 0 1.28747 6.43744 0 3.11139 4.07701 9.22708 7.0812 7.0812 9.22708 4.07701 3.11139 0 6.43744 1.28747 0 0 0 0 0 0 0 0 0 0 0 0 0 0 0 0 0 0 0 0 0 0 0 0 0 0 0 1.28747 6.43744 0 3.11139 4.07701 9.22708 7.0812 6.65203 4.07701 4.50618 3.86243 3.11139 0 0 0 0 0 0 0 0 0 0 0 0 0 0 0 0 0 0 0 0 0 0 0 0 0 0 0 0 0 0 0 3.11139 3.86243 4.50618 4.07701 6.65203 7.0812 9.22708 4.07701 3.11139 0 6.43744 1.28747 0 0 0 0 0 0 0 0 0 0 0 0 0 0 0 0 0 0 0 0 0 0 0 0 0 0 0 1.28747 6.43744 0 3.11139 4.07701 9.22708 7.0812 7.0812 9.22708 4.07701 3.11139 0 6.43744 1.28747 0 0 0 0 0 0 0 0 0 0 0 0 0 0 0 0 0 0 0 0 0 0 0 0 0 0 0 1.28747 6.43744 0 3.11139 4.07701 9.22708 7.0812 6.75932 8.69061 7.83225 4.72076 3.11139 0 0 0 0 0 0 0 0 0 0 0 0 0 0 0 0 0 0 0 0 0 0 0 0 0 0 0 0 0 0 0 3.11139 4.72076 7.83225 8.69061 6.75932 6.75932 8.69061 7.83225 4.72076 3.11139 0 0 0 0 0 0 0 0 0 0 0 0 0 0 0 0 0 0 0 0 0 0 0 0 0 0 0 0 0 0 0 3.11139 4.72076 7.83225 8.69061 6.75932 7.0812 9.22708 4.1843 3.11139 0 6.43744 1.28747 0 0 0 0 0 0 0 0 0 0 0 0 0 0 0 0 0 0 0 0 0 0 0 0 0 0 0 1.28747 6.43744 0 3.11139 4.1843 9.22708 7.0812 7.0812 9.22708 4.1843 3.11139 0 6.43744 1.28747 0 0 0 0 0 0 0 0 0 0 0 0 0 0 0 0 0 0 0 0 0 0 0 0 0 0 0 1.28747 6.43744 0 3.11139 4.1843 9.22708 7.0812 6.75932 8.69061 7.93955 4.72076 3.11139 0 0 0 0 0 0 0 0 3.32598 0 0 0 0 0 0 0 0 0 0 0 0 0 0 0 0 0 0 0 0 0 0 3.11139 4.82805 7.83225 8.69061 6.75932 7.51037 8.69061 7.93955 5.47181 3.75514 2.46765 3.64785 1.28747 0 0 1.28747 1.28747 1.28747 3.64785 1.28747 1.28747 1.28747 1.28747 1.28747 0 1.28747 1.28747 0 0 1.28747 1.28747 0 1.28747 1.28747 0 0 1.28747 1.28747 0 2.36036 3.0041 3.75514 5.47181 7.93955 8.69061 6.86661 10.5146 16.9525 12.2314 12.8752 8.26143 8.58331 8.7979 6.43744 0 0 6.43744 6.43744 6.43744 0.214577 6.43744 6.43744 6.43744 6.43744 6.43744 0 6.43744 6.43744 0 0 6.43744 6.43744 0 6.43744 6.43744 0 0 6.43744 6.43744 0 3.0041 14.6992 7.83225 8.15414 11.5876 13.8408 16.0941 10.7292 8.04684 5.47181 3.11139 0.536443 10.7292 1.07289 0 3.21869 3.21869 0 0 0 0.107288 0 0 0 0 0 3.11139 0 0 3.11139 3.11139 0 0 3.11139 0 0 3.11139 3.11139 0 0 3.11139 3.75514 7.83225 0.643732 6.11556 6.33015 9.44167 7.72496 7.93955 9.76356 6.86661 6.11556 6.11556 9.76356 3.54056 3.11139 4.82805 4.72076 3.11139 3.11139 3.0041 7.29579 3.0041 3.0041 3.0041 3.0041 3.11139 3.86243 3.11139 3.11139 4.72076 4.72076 3.11139 3.11139 3.86243 3.11139 3.11139 4.72076 4.72076 3.11139 3.11139 4.82805 5.47181 8.15414 6.11556 8.7979 7.40308 10.1927 10.6219 11.373 14.1627 16.5233 7.40308 5.79368 14.27 4.1843 4.1843 7.83225 7.83225 4.07701 4.07701 4.07701 1.07289 4.07701 4.07701 4.07701 4.07701 4.07701 4.50618 4.07701 4.07701 7.83225 7.83225 4.07701 4.07701 4.50618 4.07701 4.07701 7.83225 7.83225 4.1843 4.1843 7.83225 7.93955 11.5876 6.33015 7.40308 16.416 14.4846 11.2657 9.33438 14.6992 12.7679 10.7292 8.58331 14.5919 9.54897 9.22708 8.69061 8.69061 9.22708 9.11979 9.11979 7.93955 9.11979 9.11979 9.11979 9.11979 9.22708 4.07701 9.22708 9.22708 8.69061 8.69061 9.22708 9.22708 4.07701 9.22708 9.22708 8.69061 8.69061 9.22708 9.22708 8.69061 8.69061 13.8408 9.44167 10.1927 14.4846 15.2357 6.22285 11.373 6.00827 16.416 12.5533 7.83225 10.9438 10.3 7.0812 6.75932 6.75932 7.0812 7.0812 7.0812 6.65203 7.0812 7.0812 7.0812 7.0812 7.0812 6.65203 7.0812 7.0812 6.75932 6.75932 7.0812 7.0812 6.65203 7.0812 7.0812 6.75932 6.75932 7.0812 7.0812 6.75932 6.86661 16.0941 7.72496 10.6219 11.2657 6.22285 11.9095 0.1 0.1 0.1 0.1 0.1 0.1 0.1 0.1 0.1 0.1 0.1 0.1 0.1 0.1 0.1 0.1 0.1 0.1 0.1 0.1 0.1 0.1 0.1 0.1 0.1 0.1 0.1 0.1 0.1 0.1 0.1 0.1 0.1 0.1 0.1 0.1 0.1 0.1 0.1 0.1 0.1 0.1 0.1 0.1 0.1 0.1 0.1 0.1 0.1 0.1 0.1 0.1 0.1 0.1 0.1 0.1 0.1 0.1 0.1 0.1 0.1 0.1 0.1 0.1 0.1 0.1 0.1 0.1 0.1 0.1 0.1 0.1 0.1 0.1 0.1 0.1 0.1 0.1 0.1 0.1 0.1 0.1 0.1 0.1 0.1 0.1 0.1 0.1 0.1 0.1 0.1 0.1 0.1 0.1 0.1 0.1 0.1 0.1 0.1 0.1 0.1 0.1 0.1 0.1 0.1 0.1 0.1 0.1 0.1 0.1 0.1 0.1 0.1 0.1 0.1 0.1 0.1 0.1 0.1 0.1 0.1 0.1 0.1 0.1 0.1 0.1 0.1 0.1 0.1 0.1 0.1 0.1 0.1 0.1 0.1 0.1 0.1 0.1 0.1 0.1 0.1 0.1 0.1 0.1 0.1 0.1 0.1 0.1 0.1 0.1 0.1 0.1 0.1 0.1 0.1 0.1 0.1 0.1 0.1 0.1 0.1 0.1 0.1 0.1 0.1 0.1 0.1 0.1 0.1 0.1 0.1 0.1 0.1 0.1 0.1 0.1 0.1 0.1 0.1 0.1 0.1 0.1 0.1 0.1 0.1 0.1 0.1 0.1 0.1 0.1 0.1 0.1 0.1 0.1 0.1 0.1 0.1 0.1 0.1 0.1 0.1 0.1 0.1 0.1 0.1 0.1 0.1 0.1 0.1 0.1 0.1 0.1 0.1 0.1 0.1 0.1 0.1 0.1 0.1 0.1 0.1 0.1 0.1 0.1 0.1 0.1 0.1 0.1 0.1 0.1 0.1 0.1 0.1 0.1 0.1 0.1 0.1 0.1 0.1 0.1 0.1 0.1 0.1 0.1 0.1 0.1 0.1 0.1 0.1 0.1 0.1 0.1 0.1 0.1 0.1 0.1 0.1 0.1 0.1 0.1 0.1 0.1 0.1 0.1 0.1 0.1 0.1 0.1 0.1 0.1 0.1 0.1 0.1 0.1 0.1 0.1 0.1 0.1 0.1 0.1 0.1 0.1 0.1 0.1 0.1 0.1 0.1 0.1 0.1 0.1 0.1 0.1 0.1 0.1 0.1 0.1 0.1 0.1 0.1 0.1 0.1 0.1 0.1 0.1 0.1 0.1 0.1 0.1 0.1 0.1 0.1 0.1 0.1 0.1 0.1 0.1 0.1 0.1 0.1 0.1 0.1 0.1 0.1 0.1 0.1 0.1 0.1 0.1 
</DataArray>

<DataArray type="Float32" Name="Density" format="ascii">
1000.01 1000.02 1000.01 1000.01 1000.01 1000.02 1000.01 1000.01 1000.01 1000.01 1000.01 1000.01 1000.01 1000.01 1000.01 1000.01 1000.01 1000.01 1000.01 1000.01 1000.01 1000.01 1000.01 1000.01 1000.01 1000.01 1000.01 1000.01 1000.01 1000.01 1000.01 1000.01 1000.01 1000.01 1000.01 1000.01 1000.01 1000.01 1000.01 1000.01 1000.01 1000.02 1000.02 1000.02 1000.01 1000.01 1000.01 1000.01 1000.01 1000.01 1000.01 1000.01 1000.01 1000.01 1000.01 1000.01 1000.01 1000.01 1000.01 1000.01 1000 1000.01 1000.01 1000.01 1000.01 1000.01 1000.01 1000 1000.01 1000.01 1000.01 1000.01 1000.01 1000.01 1000.01 1000.01 1000.02 1000.01 1000.01 1000.02 1000.02 1000.01 1000.02 1000.02 1000.02 1000.01 1000.01 1000.01 1000 1000 1000.01 1000.01 1000 1000 1000 1000 1000 1000 1000 1000 1000 1000.01 1000 1000 1000.01 1000.01 1000 1000 1000.01 1000 1000 1000.01 1000.01 1000 1000 1000.01 1000.01 1000.01 1000.01 1000.01 1000.02 1000.01 1000.02 1000.02 1000.01 1000.01 1000 1000 1000.02 1000 1000 1000.01 1000.01 1000 1000 1000 1000.01 1000 1000 1000 1000 1000 1000 1000 1000 1000.01 1000.01 1000 1000 1000 1000 1000 1000.01 1000.01 1000 1000 1000.01 1000.01 1000.01 1000 1000.01 1000.01 1000.01 1000.01 1000.01 1000.01 1000.01 1000 1000 1000.01 1000 1000 1000 1000 1000 1000 1000 1000 1000 1000 1000 1000 1000 1000 1000 1000 1000 1000 1000 1000 1000 1000 1000 1000 1000 1000 1000 1000 1000 1000.01 1000 1000.01 1000.01 1000.01 1000.01 1000.01 1000.01 1000.01 1000 1000.01 1000 1000.01 1000.01 1000 1000 1000.01 1000.01 1000.01 1000 1000.01 1000.01 1000.01 1000.01 1000.01 1000 1000.01 1000.01 1000 1000 1000.01 1000.01 1000 1000.01 1000.01 1000 1000 1000.01 1000.01 1000 1000 1000.01 1000.01 1000.01 1000.02 1000.02 1000.01 1000.01 1000.01 1000.01 1000.01 1000 1000.01 1000 1000 1000 1000 1000 1000 1000 1000 1000 1000 1000 1000 1000 1000 1000 1000 1000 1000 1000 1000 1000 1000 1000 1000 1000 1000 1000 1000 1000 1000.01 1000 1000 1000 1000.01 1000.01 1000.01 1000.01 1000.01 1000.01 1000 1000.01 1000 1000 1000 1000 1000 1000 1000 1000 1000 1000 1000 1000 1000 1000 1000 1000 1000 1000 1000 1000 1000 1000 1000 1000 1000 1000 1000 1000 1000 1000.01 1000 1000 1000 1000.01 1000.01 1000.01 1000.01 1000.01 1000.01 1000 1000 1000 1000 1000 1000 1000 1000 1000 1000 1000 1000 1000 1000 1000 1000 1000 1000 1000 1000 1000 1000 1000 1000 1000 1000 1000 1000 1000 1000 1000 1000 1000 1000.01 1000.01 1000.01 1000.01 1000.01 1000.01 1000.01 1000.01 1000 1000 1000 1000 1000 1000 1000 1000 1000 1000 1000 1000 1000 1000 1000 1000 1000 1000 1000 1000 1000 1000 1000 1000 1000 1000 1000 1000 1000 1000 1000 1000 1000 1000.01 1000.01 1000.01 1000.01 1000.01 1000.01 1000 1000 1000 1000.01 1000 1000 1000 1000 1000 1000 1000 1000 1000 1000 1000 1000 1000 1000 1000 1000 1000 1000 1000 1000 1000 1000 1000 1000 1000 1000 1000 1000 1000 1000.01 1000 1000 1000 1000.01 1000.01 1000.01 1000.01 1000 1000 1000 1000.01 1000 1000 1000 1000 1000 1000 1000 1000 1000 1000 1000 1000 1000 1000 1000 1000 1000 1000 1000 1000 1000 1000 1000 1000 1000 1000 1000 1000 1000 1000.01 1000 1000 1000 1000.01 1000.01 1000.01 1000.01 1000 1000 1000 1000.01 1000 1000 1000 1000 1000 1000 1000 1000 1000 1000 1000 1000 1000 1000 1000 1000 1000 1000 1000 1000 1000 1000 1000 1000 1000 1000 1000 1000 1000 1000.01 1000 1000 1000 1000.01 1000.01 1000.01 1000.01 1000 1000.01 1000 1000 1000 1000 1000 1000 1000 1000 1000 1000 1000 1000 1000 1000 1000 1000 1000 1000 1000 1000 1000 1000 1000 1000 1000 1000 1000 1000 1000 1000 1000 1000 1000 1000.01 1000 1000.01 1000.01 1000.01 1000.01 1000 1000 1000 1000.01 1000 1000 1000 1000 1000 1000 1000 1000 1000 1000 1000 1000 1000 1000 1000 1000 1000 1000 1000 1000 1000 1000 1000 1000 1000 1000 1000 1000 1000 1000.01 1000 1000 1000 1000.01 1000.01 1000.01 1000.01 1000 1000 1000 1000.01 1000 1000 1000 1000 1000 1000 1000 1000 1000 1000 1000 1000 1000 1000 1000 1000 1000 1000 1000 1000 1000 1000 1000 1000 1000 1000 1000 1000 1000 1000.01 1000 1000 1000 1000.01 1000.01 1000.01 1000.01 1000 1000 1000 1000.01 1000 1000 1000 1000 1000 1000 1000 1000 1000 1000 1000 1000 1000 1000 1000 1000 1000 1000 1000 1000 1000 1000 1000 1000 1000 1000 1000 1000 1000 1000.01 1000 1000 1000 1000.01 1000.01 1000.01 1000.01 1000 1000 1000 1000.01 1000 1000 1000 1000 1000 1000 1000 1000 1000 1000 1000 1000 1000 1000 1000 1000 1000 1000 1000 1000 1000 1000 1000 1000 1000 1000 1000 1000 1000 1000.01 1000 1000 1000 1000.01 1000.01 1000.01 1000.01 1000 1000 1000 1000.01 1000 1000 1000 1000 1000 1000 1000 1000 1000 1000 1000 1000 1000 1000 1000 1000 1000 1000 1000 1000 1000 1000 1000 1000 1000 1000 1000 1000 1000 1000.01 1000 1000 1000 1000.01 1000.01 1000.01 1000 1000.01 1000 1000 1000 1000 1000 1000 1000 1000 1000 1000 1000 1000 1000 1000 1000 1000 1000 1000 1000 1000 1000 1000 1000 1000 1000 1000 1000 1000 1000 1000 1000 1000 1000 1000 1000 1000.01 1000 1000.01 1000.01 1000.01 1000 1000 1000 1000.01 1000 1000 1000 1000 1000 1000 1000 1000 1000 1000 1000 1000 1000 1000 1000 1000 1000 1000 1000 1000 1000 1000 1000 1000 1000 1000 1000 1000 1000 1000.01 1000 1000 1000 1000.01 1000.01 1000.01 1000.01 1000 1000 1000 1000.01 1000 1000 1000 1000 1000 1000 1000 1000 1000 1000 1000 1000 1000 1000 1000 1000 1000 1000 1000 1000 1000 1000 1000 1000 1000 1000 1000 1000 1000 1000.01 1000 1000 1000 1000.01 1000.01 1000.01 1000.01 1000.01 1000.01 1000 1000 1000 1000 1000 1000 1000 1000 1000 1000 1000 1000 1000 1000 1000 1000 1000 1000 1000 1000 1000 1000 1000 1000 1000 1000 1000 1000 1000 1000 1000 1000 1000 1000.01 1000.01 1000.01 1000.01 1000.01 1000.01 1000.01 1000.01 1000 1000 1000 1000 1000 1000 1000 1000 1000 1000 1000 1000 1000 1000 1000 1000 1000 1000 1000 1000 1000 1000 1000 1000 1000 1000 1000 1000 1000 1000 1000 1000 1000 1000.01 1000.01 1000.01 1000.01 1000.01 1000.01 1000 1000 1000 1000.01 1000 1000 1000 1000 1000 1000 1000 1000 1000 1000 1000 1000 1000 1000 1000 1000 1000 1000 1000 1000 1000 1000 1000 1000 1000 1000 1000 1000 1000 1000.01 1000 1000 1000 1000.01 1000.01 1000.01 1000.01 1000 1000 1000 1000.01 1000 1000 1000 1000 1000 1000 1000 1000 1000 1000 1000 1000 1000 1000 1000 1000 1000 1000 1000 1000 1000 1000 1000 1000 1000 1000 1000 1000 1000 1000.01 1000 1000 1000 1000.01 1000.01 1000.01 1000 1000.01 1000 1000 1000 1000 1000 1000 1000 1000 1000 1000 1000 1000 1000 1000 1000 1000 1000 1000 1000 1000 1000 1000 1000 1000 1000 1000 1000 1000 1000 1000 1000 1000 1000 1000 1000 1000.01 1000 1000.01 1000.01 1000.01 1000 1000 1000 1000.01 1000 1000 1000 1000 1000 1000 1000 1000 1000 1000 1000 1000 1000 1000 1000 1000 1000 1000 1000 1000 1000 1000 1000 1000 1000 1000 1000 1000 1000 1000.01 1000 1000 1000 1000.01 1000.01 1000.01 1000.01 1000 1000 1000 1000.01 1000 1000 1000 1000 1000 1000 1000 1000 1000 1000 1000 1000 1000 1000 1000 1000 1000 1000 1000 1000 1000 1000 1000 1000 1000 1000 1000 1000 1000 1000.01 1000 1000 1000 1000.01 1000.01 1000.01 1000.01 1000.01 1000.01 1000 1000 1000 1000 1000 1000 1000 1000 1000 1000 1000 1000 1000 1000 1000 1000 1000 1000 1000 1000 1000 1000 1000 1000 1000 1000 1000 1000 1000 1000 1000 1000 1000 1000.01 1000.01 1000.01 1000.01 1000.01 1000.01 1000.01 1000.01 1000 1000 1000 1000 1000 1000 1000 1000 1000 1000 1000 1000 1000 1000 1000 1000 1000 1000 1000 1000 1000 1000 1000 1000 1000 1000 1000 1000 1000 1000 1000 1000 1000 1000.01 1000.01 1000.01 1000.01 1000.01 1000.01 1000 1000 1000 1000.01 1000 1000 1000 1000 1000 1000 1000 1000 1000 1000 1000 1000 1000 1000 1000 1000 1000 1000 1000 1000 1000 1000 1000 1000 1000 1000 1000 1000 1000 1000.01 1000 1000 1000 1000.01 1000.01 1000.01 1000.01 1000 1000 1000 1000.01 1000 1000 1000 1000 1000 1000 1000 1000 1000 1000 1000 1000 1000 1000 1000 1000 1000 1000 1000 1000 1000 1000 1000 1000 1000 1000 1000 1000 1000 1000.01 1000 1000 1000 1000.01 1000.01 1000.01 1000.01 1000.01 1000.01 1000 1000 1000 1000 1000 1000 1000 1000 1000 1000 1000 1000 1000 1000 1000 1000 1000 1000 1000 1000 1000 1000 1000 1000 1000 1000 1000 1000 1000 1000 1000 1000 1000 1000.01 1000.01 1000.01 1000.01 1000.01 1000.01 1000.01 1000.01 1000 1000 1000 1000 1000 1000 1000 1000 1000 1000 1000 1000 1000 1000 1000 1000 1000 1000 1000 1000 1000 1000 1000 1000 1000 1000 1000 1000 1000 1000 1000 1000 1000 1000.01 1000.01 1000.01 1000.01 1000.01 1000.02 1000.01 1000.01 1000.01 1000.01 1000.01 1000.01 1000 1000 1000.01 1000.01 1000.01 1000 1000.01 1000.01 1000.01 1000.01 1000.01 1000 1000.01 1000.01 1000 1000 1000.01 1000.01 1000 1000.01 1000.01 1000 1000 1000.01 1000.01 1000 1000 1000.02 1000.01 1000.01 1000.01 1000.02 1000.02 1000.01 1000.01 1000.01 1000 1000 1000.01 1000 1000 1000 1000 1000 1000 1000 1000 1000 1000 1000 1000 1000 1000 1000 1000 1000 1000 1000 1000 1000 1000 1000 1000 1000 1000 1000 1000 1000 1000.01 1000 1000.01 1000.01 1000.01 1000.01 1000.01 1000.01 1000.01 1000.01 1000.01 1000.01 1000 1000 1000.01 1000.01 1000 1000 1000 1000.01 1000 1000 1000 1000 1000 1000 1000 1000 1000.01 1000.01 1000 1000 1000 1000 1000 1000.01 1000.01 1000 1000 1000.01 1000.01 1000.01 1000.01 1000.01 1000.01 1000.01 1000.01 1000.01 1000.02 1000.02 1000.01 1000.01 1000.02 1000 1000 1000.01 1000.01 1000 1000 1000 1000 1000 1000 1000 1000 1000 1000.01 1000 1000 1000.01 1000.01 1000 1000 1000.01 1000 1000 1000.01 1000.01 1000 1000 1000.01 1000.01 1000.01 1000.01 1000.01 1000.02 1000.02 1000.01 1000.01 1000.02 1000.01 1000.01 1000.01 1000.02 1000.01 1000.01 1000.01 1000.01 1000.01 1000.01 1000.01 1000.01 1000.01 1000.01 1000.01 1000.01 1000.01 1000 1000.01 1000.01 1000.01 1000.01 1000.01 1000.01 1000 1000.01 1000.01 1000.01 1000.01 1000.01 1000.01 1000.01 1000.01 1000.02 1000.01 1000.01 1000.02 1000.02 1000.01 1000.01 1000.01 1000.02 1000.01 1000.01 1000.01 1000.01 1000.01 1000.01 1000.01 1000.01 1000.01 1000.01 1000.01 1000.01 1000.01 1000.01 1000.01 1000.01 1000.01 1000.01 1000.01 1000.01 1000.01 1000.01 1000.01 1000.01 1000.01 1000.01 1000.01 1000.01 1000.01 1000.01 1000.01 1000.01 1000.02 1000.01 1000.01 1000.01 1000.01 1000.01 1000 1000 1000 1000 1000 1000 1000 1000 1000 1000 1000 1000 1000 1000 1000 1000 1000 1000 1000 1000 1000 1000 1000 1000 1000 1000 1000 1000 1000 1000 1000 1000 1000 1000 1000 1000 1000 1000 1000 1000 1000 1000 1000 1000 1000 1000 1000 1000 1000 1000 1000 1000 1000 1000 1000 1000 1000 1000 1000 1000 1000 1000 1000 1000 1000 1000 1000 1000 1000 1000 1000 1000 1000 1000 1000 1000 1000 1000 1000 1000 1000 1000 1000 1000 1000 1000 1000 1000 1000 1000 1000 1000 1000 1000 1000 1000 1000 1000 1000 1000 1000 1000 1000 1000 1000 1000 1000 1000 1000 1000 1000 1000 1000 1000 1000 1000 1000 1000 1000 1000 1000 1000 1000 1000 1000 1000 1000 1000 1000 1000 1000 1000 1000 1000 1000 1000 1000 1000 1000 1000 1000 1000 1000 1000 1000 1000 1000 1000 1000 1000 1000 1000 1000 1000 1000 1000 1000 1000 1000 1000 1000 1000 1000 1000 1000 1000 1000 1000 1000 1000 1000 1000 1000 1000 1000 1000 1000 1000 1000 1000 1000 1000 1000 1000 1000 1000 1000 1000 1000 1000 1000 1000 1000 1000 1000 1000 1000 1000 1000 1000 1000 1000 1000 1000 1000 1000 1000 1000 1000 1000 1000 1000 1000 1000 1000 1000 1000 1000 1000 1000 1000 1000 1000 1000 1000 1000 1000 1000 1000 1000 1000 1000 1000 1000 1000 1000 1000 1000 1000 1000 1000 1000 1000 1000 1000 1000 1000 1000 1000 1000 1000 1000 1000 1000 1000 1000 1000 1000 1000 1000 1000 1000 1000 1000 1000 1000 1000 1000 1000 1000 1000 1000 1000 1000 1000 1000 1000 1000 1000 1000 1000 1000 1000 1000 1000 1000 1000 1000 1000 1000 1000 1000 1000 1000 1000 1000 1000 1000 1000 1000 1000 1000 1000 1000 1000 1000 1000 1000 1000 1000 1000 1000 1000 1000 1000 1000 1000 1000 1000 1000 1000 1000 1000 1000 1000 1000 1000 1000 
</DataArray>
<DataArray type="Float32" Name="Velocity" NumberOfComponents="3" format="ascii">
0.0043215989 0.0059675863 0
2.0102736e-05 0.0058381022 0
-0.0002754161 0.005309422 0
0.00023115368 0.0046850089 0
9.9905563e-05 0.0039552045 0
0.00015618479 0.0028997252 0
1.4127351e-06 0.0040061935 0
4.3119007e-07 0.0040062056 0
1.6325451e-06 0.0028895668 0
2.1204835e-06 0.002888184 0
-6.5997313e-07 0.0040062023 0
2.5145826e-07 0.0040062168 0
-2.6261736e-07 0.0040062102 0
2.7219105e-10 0.0049025747 0
-8.2127974e-07 0.0040062177 0
-1.087624e-07 0.0040062177 0
-8.3956856e-08 0.0040062172 0
-2.6279002e-07 0.0040062219 0
9.9680881e-07 0.004006207 0
1.3023327e-06 0.0028699609 0
3.8876803e-07 0.0040062163 0
-1.5208123e-08 0.004006221 0
1.5523767e-07 0.0028812389 0
-1.0693727e-07 0.0028812466 0
-1.381044e-07 0.0040062182 0
-3.8614462e-07 0.0040062154 0
2.9114108e-10 0.0028700435 0
3.8614462e-07 0.0040062154 0
1.3810434e-07 0.0040062182 0
1.3106366e-07 0.0028812466 0
-1.0601402e-06 0.0028810569 0
-3.1764358e-07 0.0040062182 0
3.1999417e-07 0.0040062182 0
-7.0564879e-06 0.0028812129 0
-1.3706714e-05 0.0028832064 0
-0.00019715592 0.0039610043 0
-0.0001042389 0.0039051266 0
-0.00013885922 0.0029260854 0
-0.0010248246 0.0040807663 0
-2.1151714e-05 0.0038296098 0
-0.0046034576 0.0044314871 0
0.0041941009 0.0011698416 0
0.00071182573 0.0012639886 0
0.00014735611 0.00054514874 0
0.00011456447 0.00072962471 0
0.00023671906 0.00091030379 0
9.280091e-05 0.00064045435 0
1.6840082e-05 0.0011180128 0
1.2140845e-05 0.0011193493 0
1.5895943e-06 0.00087960239 0
2.6513533e-06 0.00087955088 0
3.7136408e-06 0.0011193869 0
2.8659224e-06 0.0011194673 0
6.3254442e-06 0.0011196506 0
-6.9120159e-07 0.0013927555 0
-2.8831523e-06 0.0011195114 0
1.1892399e-06 0.0011196295 0
3.8837138e-06 0.0011196511 0
3.7312363e-06 0.0011196346 0
4.5533411e-06 0.0011195388 0
-1.2598383e-08 0.00075191568 0
-1.3031736e-06 0.0011195326 0
-7.1398182e-07 0.0011194368 0
-1.5764435e-06 0.00087933493 0
1.5100345e-06 0.00087933528 0
1.1757489e-06 0.0011195062 0
2.1842723e-06 0.001119497 0
3.927223e-08 0.00075178756 0
-3.8413605e-06 0.0011195122 0
-2.4027529e-06 0.0011194925 0
-7.6090657e-07 0.00087932451 0
7.9837559e-07 0.00087924406 0
-8.0769478e-06 0.0011194143 0
-5.4540155e-06 0.0011193776 0
-9.040953e-06 0.00087842043 0
-1.0132566e-05 0.00087772659 0
-0.00022322257 0.0010688441 0
-0.0001104078 0.0011006198 0
-0.00021670035 0.00059992092 0
-0.00045186075 0.00038687765 0
-0.00058050564 0.00059182354 0
-0.003799441 -4.0049919e-05 0
0.003499089 0.00061650702 0
0.00029247647 0.00033413025 0
0.00071198028 8.8577799e-05 0
0.00033693563 9.5781266e-05 0
0.00015998025 -0.00011516677 0
0.0001878013 6.7494009e-05 0
1.1380051e-05 0.00012868839 0
-1.7504858e-06 0.00012839984 0
-1.1153699e-06 0.00019777188 0
5.6720705e-06 0.00019823354 0
5.1728407e-06 0.00012792289 0
-1.4253097e-06 0.00012727818 0
-1.8484861e-06 0.00012704232 0
-8.7698174e-07 8.6510059e-05 0
1.1523986e-08 0.00012724672 0
-4.1626842e-07 0.00012733399 0
3.0759481e-06 0.00012731338 0
6.9432684e-07 0.00012732239 0
1.1723395e-06 0.00012723455 0
3.8838792e-07 0.00016168354 0
2.1521028e-06 0.00012727614 0
-5.2603345e-06 0.00012730114 0
3.3802778e-06 0.00019876592 0
-2.9347507e-06 0.00019880621 0
3.4124616e-06 0.00012730285 0
-5.1093302e-06 0.00012739452 0
-4.0932428e-06 0.00016126354 0
-1.6696471e-07 0.00012751849 0
-2.0046109e-06 0.00012757123 0
-1.7114614e-06 0.0001985516 0
1.7039436e-06 0.00019845208 0
-7.9591064e-07 0.00012771651 0
-6.244547e-06 0.00012801462 0
-7.6635533e-06 0.00019813451 0
-1.9709494e-05 0.00019722189 0
-0.00013623004 7.5258533e-05 0
-0.00010012236 7.6604294e-05 0
-0.00030950541 0.00017864602 0
-0.0004194483 0.00043839967 0
-0.00031100877 0.00052392401 0
-0.0039148903 0.00092603435 0
0.0040536798 0.00042808961 0
0.00082934869 0.00039061051 0
0.00050718611 0.00033995658 0
0.00012705298 0.0001421865 0
1.4891192e-05 0.00023630928 0
0.00013547229 0.00012389229 0
4.2926298e-05 0.00012996237 0
3.5884324e-07 0.00013187142 0
-9.646875e-07 0.00012540199 0
4.0593986e-06 0.00012541909 0
4.352396e-06 0.00013163904 0
1.6581884e-06 0.00013123071 0
1.8774465e-06 0.00013108422 0
-3.752788e-07 0.00018040845 0
-4.749775e-07 0.00013108012 0
-3.1298475e-07 0.00013110846 0
2.9296066e-07 0.00013110859 0
2.638823e-07 0.00013110765 0
5.6607411e-07 0.00013140751 0
-1.587126e-07 0.00011250393 0
-3.3193514e-06 0.00013143627 0
-5.7546188e-08 0.00013159573 0
9.9243471e-07 0.00012538659 0
-5.5400892e-07 0.00012539673 0
5.7462933e-07 0.0001315148 0
3.6536005e-06 0.00013140432 0
3.1762293e-09 0.00011265627 0
-3.6372965e-06 0.00013140481 0
-5.5639964e-07 0.00013151656 0
5.7810092e-07 0.0001253943 0
-8.0922155e-07 0.00012554925 0
1.0862739e-06 0.00013164199 0
-9.5525365e-06 0.00013185956 0
-1.399925e-05 0.00012558044 0
-1.8905643e-05 0.00012332795 0
-0.0001141886 0.00015396775 0
-0.00012379543 0.00014606044 0
-0.00021371678 0.00021102822 0
-0.00010213814 0.00032371352 0
-0.00098836073 0.00011444851 0
-0.0040421458 0.00031979015 0
0.0041533103 0.00053767918 0
0.00099952309 0.00012410426 0
0.00023213081 0.00014155811 0
0.00015760836 7.8507132e-05 0
8.2781335e-05 6.9145659e-05 0
7.5760268e-05 6.015343e-05 0
1.8023053e-05 7.273892e-05 0
4.5592042e-06 7.3872819e-05 0
2.2598742e-06 3.9733917e-05 0
1.3570359e-06 3.9599407e-05 0
-8.9748767e-07 7.375476e-05 0
-7.3164426e-07 7.3765441e-05 0
2.0649132e-07 7.3634968e-05 0
-1.931944e-07 7.8453151e-05 0
-3.6687348e-07 7.3631847e-05 0
1.4075586e-07 7.366787e-05 0
1.5376693e-07 7.3667048e-05 0
3.6718043e-07 7.3667245e-05 0
1.066353e-06 7.3745854e-05 0
5.3427925e-07 3.8409515e-05 0
1.0650658e-07 7.3720432e-05 0
8.9026281e-07 7.377466e-05 0
-1.7221873e-06 3.8880236e-05 0
1.7220967e-06 3.888036e-05 0
-2.2822121e-07 7.3724412e-05 0
-1.3639286e-09 7.3717878e-05 0
1.4352963e-15 3.8440776e-05 0
1.3608058e-09 7.3717878e-05 0
2.2822123e-07 7.3724412e-05 0
-1.722173e-06 3.8880349e-05 0
1.7295298e-06 3.8879538e-05 0
-3.7505734e-07 7.3721349e-05 0
3.7656125e-07 7.3748e-05 0
-1.8741919e-06 3.8881954e-05 0
-2.6642881e-05 3.7358699e-05 0
-0.00018104991 2.1660942e-05 0
-5.834996e-05 0.00014280791 0
-0.00014558309 7.2517854e-05 0
-0.00011189202 6.6512337e-05 0
-0.0011091013 0.00019065394 0
-0.003818922 0.00024311293 0
0.002956155 0.00016255733 0
0.00074197003 0.00013934077 0
0.00030837112 6.8033602e-05 0
8.9383619e-05 7.8788325e-05 0
8.940752e-05 0.00012654526 0
1.4166776e-05 1.9097923e-05 0
3.9811262e-06 9.5691219e-05 0
3.3324338e-06 9.5473508e-05 0
2.2765612e-06 1.3911523e-06 0
-1.3653637e-06 1.3769343e-06 0
1.4181299e-07 9.5465628e-05 0
-9.815772e-08 9.5467869e-05 0
-5.5108239e-07 9.5444033e-05 0
-1.8416358e-07 6.7520239e-05 0
5.8462484e-07 9.5443982e-05 0
-2.0552635e-07 9.5467811e-05 0
-7.2145684e-07 9.5467956e-05 0
-2.3021788e-07 9.5467789e-05 0
4.924749e-07 9.5465613e-05 0
8.2717696e-07 1.2858623e-06 0
1.0488183e-07 9.5472555e-05 0
8.5548112e-07 9.5467825e-05 0
9.1458855e-07 1.3164737e-06 0
-9.1463494e-07 1.3164748e-06 0
-1.389373e-07 9.5467432e-05 0
2.7475824e-08 9.5468808e-05 0
3.1839422e-15 1.2993453e-06 0
-2.7475824e-08 9.5468808e-05 0
1.389373e-07 9.5467432e-05 0
9.1463494e-07 1.3164748e-06 0
-9.1464608e-07 1.3164746e-06 0
-3.7788425e-07 9.5467076e-05 0
3.7788425e-07 9.5467163e-05 0
-4.5422803e-07 1.3165455e-06 0
-4.6009809e-05 -4.2662768e-06 0
6.4719479e-06 0.00018437373 0
-1.7630093e-05 0.00015676786 0
-0.00017398571 4.5291425e-05 0
-0.00019067712 0.0001584604 0
-0.00082683982 0.00013378853 0
-0.0029014142 6.7812507e-05 0
0.0039589969 1.1307382e-05 0
0.0012249554 4.0692659e-05 0
0.00022736895 8.2119164e-05 0
0.00011844046 0.00015585302 0
0.00013977707 2.0818341e-05 0
0.00012468116 -1.0576035e-05 0
1.4769412e-05 1.4151969e-05 0
2.9901557e-07 1.4257434e-05 0
1.4346107e-07 -3.6403227e-09 0
-7.6846973e-08 -3.6041607e-09 0
-1.0681252e-07 1.4257357e-05 0
-1.5011673e-07 1.4257359e-05 0
1.9089651e-07 1.4257247e-05 0
4.50605e-12 8.2335377e-05 0
-1.9023133e-07 1.4257275e-05 0
1.9157284e-07 1.4257367e-05 0
-4.6537508e-08 1.425736e-05 0
4.5302713e-08 1.4257392e-05 0
1.4119706e-07 1.4257272e-05 0
-4.6036031e-14 -3.6544752e-09 0
-3.433222e-07 1.4257372e-05 0
3.4001201e-07 1.4257392e-05 0
-1.2687117e-13 -3.6212571e-09 0
1.2687129e-13 -3.6212566e-09 0
-3.395316e-07 1.4257363e-05 0
3.4211587e-07 1.4257362e-05 0
0 -3.6361254e-09 0
-3.4211587e-07 1.4257362e-05 0
3.395316e-07 1.4257363e-05 0
-1.2687129e-13 -3.6212566e-09 0
1.2687132e-13 -3.6212557e-09 0
-3.3977309e-07 1.4257363e-05 0
2.6280691e-07 1.4257424e-05 0
-4.9427365e-07 -3.789852e-09 0
-2.6073263e-05 1.2118694e-05 0
-8.5329484e-05 3.4000339e-05 0
-7.3099291e-05 1.8162087e-05 0