<?xml version="1.0" ?>

<VTKFile type="UnstructuredGrid" version="0.1" byte_order="BigEndian">

<UnstructuredGrid>

<Piece NumberOfPoints= " 2009 " NumberOfCells=" 2009 ">

<PointData Scalars="Pressure" Vectors="Velocity">

<DataArray type="Float32" Name="Pressure" format="ascii">

7.40308 13.4116 11.6949 10.6219 9.54897 9.33438 9.87085 6.54473 7.18849 7.18849 6.54473 6.54473 6.54473 7.40308 6.54473 6.54473 6.54473 6.54473 6.54473 6.97391 6.54473 6.54473 7.18849 7.18849 6.54473 6.54473 7.0812 6.54473 6.54473 7.18849 7.18849 6.54473 6.54473 7.18849 12.0168 8.9052 9.54897 9.87085 11.1584 7.83225 10.4073 17.5963 19.4205 15.2357 10.3 7.51037 9.97815 14.3773 9.22708 9.22708 9.22708 9.22708 9.11979 9.11979 7.93955 9.11979 9.11979 9.11979 9.11979 9.22708 4.07701 9.22708 9.22708 9.33438 9.33438 9.22708 9.22708 4.07701 9.22708 9.22708 9.33438 9.33438 9.22708 9.22708 9.33438 11.2657 12.6606 7.72496 10.9438 14.1627 14.6992 5.79368 14.6992 13.5189 14.27 9.76356 5.5791 11.2657 5.25722 2.57494 7.61767 7.93955 2.46765 2.46765 2.46765 -0.536441 2.46765 2.46765 2.46765 2.46765 2.46765 4.50618 2.46765 2.46765 8.04684 8.04684 2.46765 2.46765 4.50618 2.46765 2.46765 8.04684 8.04684 2.57494 2.57494 8.36873 10.3 8.47602 3.54056 6.86661 16.5233 12.7679 16.3087 12.2314 14.4846 12.9825 5.5791 2.03849 9.01249 11.5876 4.82805 3.11139 3.11139 4.72076 4.82805 4.72076 8.9052 4.72076 4.72076 4.72076 4.72076 4.72076 1.60933 4.72076 4.82805 3.11139 3.11139 4.72076 4.72076 1.60933 4.72076 4.72076 3.11139 3.11139 4.72076 4.72076 3.11139 9.54897 8.9052 4.72076 4.50618 7.40308 9.22708 13.0898 8.04684 9.76356 8.04684 1.60933 0.965598 7.93955 6.00827 0 6.54473 6.43744 0 0 0 0.107288 0 0 0 0 0 6.33015 0 0 6.43744 6.43744 0 0 6.33015 0 0 6.43744 6.43744 0 0 6.43744 11.0511 3.96972 0.965598 9.65626 4.39889 10.1927 9.65626 10.5146 6.97391 5.90098 1.50204 8.69061 0.214577 4.2916 2.57494 0 0 2.57494 2.57494 2.57494 0.214577 2.57494 2.57494 2.57494 2.57494 2.57494 0 2.57494 2.57494 0 0 2.57494 2.57494 0 2.57494 2.57494 0 0 2.57494 2.57494 0 0.214577 2.78952 9.97815 5.04264 10.6219 11.2657 10.0854 10.4073 9.65626 4.39889 7.0812 6.11556 3.32598 9.54897 4.93535 0 0 4.82805 4.82805 4.82805 0.107288 4.82805 4.82805 4.82805 4.82805 4.82805 0 4.82805 4.82805 0 0 4.82805 4.82805 0 4.82805 4.82805 0 0 4.82805 4.82805 0.965598 10.9438 6.75932 4.39889 8.04684 6.33015 12.8752 11.9095 6.65203 10.5146 4.72076 9.87085 0.321865 2.89681 4.72076 0 0 0 0 0 0 7.18849 0 0 0 0 0 0 0 0 0 0 0 0 0 0 0 0 0 0 0 0 5.04264 2.57494 0 4.82805 2.57494 9.22708 6.54473 7.29579 15.0211 14.8065 3.11139 6.54473 -0.107288 2.68223 0 0 0 0 0 0 0.429154 0 0 0 0 0 0 0 0 0 0 0 0 0 0 0 0 0 0 0 0 0 0 6.54473 3.11139 7.61767 9.22708 7.18849 7.18849 10.1927 9.33438 3.11139 6.54473 0.429154 4.1843 0 0 0 0 0 0 0 0 0 0 0 0 0 0 0 0 0 0 0 0 0 0 0 0 0 0 0 0 0 6.43744 3.11139 7.93955 9.22708 7.18849 6.54473 9.22708 2.46765 4.82805 0 2.57494 4.82805 0 0 0 0 0 0 0 0 0 0 0 0 0 0 0 0 0 0 0 0 0 0 0 0 0 0 0 4.82805 2.57494 0 4.82805 2.46765 9.22708 6.54473 6.54473 9.11979 2.46765 4.82805 0 2.57494 4.82805 0 0 0 0 0 0 0 0 0 0 0 0 0 0 0 0 0 0 0 0 0 0 0 0 0 0 0 4.82805 2.57494 0 4.82805 2.46765 9.11979 6.54473 6.54473 9.11979 2.46765 4.72076 0 2.57494 4.82805 0 0 0 0 0 0 0 0 0 0 0 0 0 0 0 0 0 0 0 0 0 0 0 0 0 0 0 4.82805 2.57494 0 4.72076 2.46765 9.11979 6.54473 7.40308 7.93955 -0.536441 8.9052 0.107288 0.214577 0.107288 7.18849 0.429154 0 0 0 0 0 0 0 0 0 0 0 0 0 0 0 0 0 0 0 0 0 0 0 0.429154 7.18849 0.107288 0.214577 0.107288 8.9052 -0.536441 7.93955 7.40308 6.54473 9.11979 2.46765 4.72076 0 2.57494 4.82805 0 0 0 0 0 0 0 0 0 0 0 0 0 0 0 0 0 0 0 0 0 0 0 0 0 0 0 4.82805 2.57494 0 4.72076 2.46765 9.11979 6.54473 6.54473 9.11979 2.46765 4.72076 0 2.57494 4.82805 0 0 0 0 0 0 0 0 0 0 0 0 0 0 0 0 0 0 0 0 0 0 0 0 0 0 0 4.82805 2.57494 0 4.72076 2.46765 9.11979 6.54473 6.54473 9.11979 2.46765 4.72076 0 2.57494 4.82805 0 0 0 0 0 0 0 0 0 0 0 0 0 0 0 0 0 0 0 0 0 0 0 0 0 0 0 4.82805 2.57494 0 4.72076 2.46765 9.11979 6.54473 6.54473 9.11979 2.46765 4.72076 0 2.57494 4.82805 0 0 0 0 0 0 0 0 0 0 0 0 0 0 0 0 0 0 0 0 0 0 0 0 0 0 0 4.82805 2.57494 0 4.72076 2.46765 9.11979 6.54473 6.54473 9.22708 2.46765 4.72076 0 2.57494 4.82805 0 0 0 0 0 0 0 0 0 0 0 0 0 0 0 0 0 0 0 0 0 0 0 0 0 0 0 4.82805 2.57494 0 4.72076 2.46765 9.22708 6.54473 6.97391 4.07701 4.50618 1.60933 6.33015 0 0 0 0 0 0 0 0 0 0 0 0 0 0 0 0 0 0 0 0 0 0 0 0 0 0 0 0 0 0 0 6.33015 1.60933 4.50618 4.07701 6.97391 6.54473 9.22708 2.46765 4.72076 0 2.57494 4.82805 0 0 0 0 0 0 0 0 0 0 0 0 0 0 0 0 0 0 0 0 0 0 0 0 0 0 0 4.82805 2.57494 0 4.72076 2.46765 9.22708 6.54473 6.54473 9.22708 2.46765 4.82805 0 2.57494 4.82805 0 0 0 0 0 0 0 0 0 0 0 0 0 0 0 0 0 0 0 0 0 0 0 0 0 0 0 4.82805 2.57494 0 4.82805 2.46765 9.22708 6.54473 7.18849 9.33438 8.04684 3.11139 6.43744 0 0 0 0 0 0 0 0 0 0 0 0 0 0 0 0 0 0 0 0 0 0 0 0 0 0 0 0 0 0 0 6.43744 3.11139 8.04684 9.33438 7.18849 7.18849 9.33438 8.04684 3.11139 6.43744 0 0 0 0 0 0 0 0 0 0 0 0 0 0 0 0 0 0 0 0 0 0 0 0 0 0 0 0 0 0 0 6.43744 3.11139 8.04684 9.33438 7.18849 6.54473 9.22708 2.46765 4.72076 0 2.57494 4.82805 0 0 0 0 0 0 0 0 0 0 0 0 0 0 0 0 0 0 0 0 0 0 0 0 0 0 0 4.82805 2.57494 0 4.72076 2.46765 9.22708 6.54473 6.54473 9.22708 2.46765 4.72076 0 2.57494 4.82805 0 0 0 0 0 0 0 0 0 0 0 0 0 0 0 0 0 0 0 0 0 0 0 0 0 0 0 4.82805 2.57494 0 4.72076 2.46765 9.22708 6.54473 7.0812 4.07701 4.50618 1.60933 6.33015 0 0 0 0 0 0 0 0 0 0 0 0 0 0 0 0 0 0 0 0 0 0 0 0 0 0 0 0 0 0 0 6.33015 1.60933 4.50618 4.07701 7.0812 6.54473 9.22708 2.46765 4.72076 0 2.57494 4.82805 0 0 0 0 0 0 0 0 0 0 0 0 0 0 0 0 0 0 0 0 0 0 0 0 0 0 0 4.82805 2.57494 0 4.72076 2.46765 9.22708 6.54473 6.54473 9.22708 2.46765 4.72076 0 2.57494 4.82805 0 0 0 0 0 0 0 0 0 0 0 0 0 0 0 0 0 0 0 0 0 0 0 0 0 0 0 4.82805 2.57494 0 4.72076 2.46765 9.22708 6.54473 7.18849 9.33438 8.04684 3.11139 6.43744 0 0 0 0 0 0 0 0 0 0 0 0 0 0 0 0 0 0 0 0 0 0 0 0 0 0 0 0 0 0 0 6.43744 3.11139 8.04684 9.33438 7.18849 7.18849 9.33438 8.04684 3.11139 6.43744 0 0 0 0 0 0 0 0 0 0 0 0 0 0 0 0 0 0 0 0 0 0 0 0 0 0 0 0 0 0 0 6.43744 3.11139 8.04684 9.33438 7.18849 6.54473 9.22708 2.57494 4.72076 0 2.57494 4.82805 0 0 0 0 0 0 0 0 0 0 0 0 0 0 0 0 0 0 0 0 0 0 0 0 0 0 0 4.82805 2.57494 0 4.72076 2.57494 9.22708 6.54473 6.54473 9.22708 2.57494 4.72076 0 2.57494 4.82805 0 0 0 0 0 0 0.429154 0 0 0 0 0 0 0 0 0 0 0 0 0 0 0 0 0 0 0 0 4.82805 2.57494 0 4.72076 2.57494 9.22708 6.54473 7.18849 9.33438 8.36873 3.11139 6.43744 0 0.965598 0 0 0 0 0 0 7.18849 0 0 0 0 0 0 0 0 0 0 0 0 0 0 0 0 0 0 0 0 0.536443 0 6.43744 3.11139 8.26143 9.33438 7.18849 12.0168 11.2657 10.3 9.54897 11.0511 0.214577 10.9438 5.04264 0 0 4.82805 4.82805 4.82805 0.107288 4.82805 4.82805 4.82805 4.82805 4.82805 0 4.82805 4.82805 0 0 4.82805 4.82805 0 4.82805 4.82805 0 0 4.82805 4.82805 0.536443 7.40308 4.82805 10.3 7.51037 9.87085 11.373 11.8022 8.9052 12.6606 8.47602 8.9052 3.96972 2.78952 6.75932 2.57494 0 0 2.57494 2.57494 2.57494 0.214577 2.57494 2.57494 2.57494 2.57494 2.57494 0 2.57494 2.57494 0 0 2.57494 2.57494 0 2.57494 2.57494 0 0 2.57494 2.57494 0 4.82805 5.25722 4.1843 6.11556 7.72496 9.76356 7.72496 9.54897 7.72496 3.54056 4.72076 0.965598 9.97815 4.39889 0 6.54473 6.43744 0 0 0 0.107288 0 0 0 0 0 6.33015 0 0 6.43744 6.43744 0 0 6.33015 0 0 6.43744 6.43744 0 0 6.43744 10.3 4.1843 1.18018 9.44167 5.25722 11.0511 10.3 9.87085 10.9438 6.86661 4.50618 9.65626 5.04264 8.04684 4.82805 3.11139 3.11139 4.82805 4.82805 4.72076 8.9052 4.72076 4.72076 4.72076 4.72076 4.72076 1.60933 4.72076 4.82805 3.11139 3.11139 4.72076 4.72076 1.60933 4.72076 4.72076 3.11139 3.11139 4.72076 4.72076 3.11139 7.51037 6.11556 9.44167 3.86243 7.40308 11.8022 9.76356 11.1584 14.1627 16.5233 7.40308 4.39889 10.6219 6.33015 2.57494 7.61767 7.93955 2.46765 2.46765 2.46765 -0.536441 2.46765 2.46765 2.46765 2.46765 2.46765 4.50618 2.46765 2.46765 8.04684 8.04684 2.46765 2.46765 4.50618 2.46765 2.46765 8.04684 8.04684 2.57494 2.57494 8.26143 9.87085 7.72496 5.25722 7.40308 16.416 14.4846 9.97815 7.83225 14.6992 12.7679 9.22708 10.1927 11.2657 12.8752 9.22708 9.22708 9.22708 9.22708 9.11979 9.11979 7.93955 9.11979 9.11979 9.11979 9.11979 9.22708 4.07701 9.22708 9.22708 9.33438 9.33438 9.22708 9.22708 4.07701 9.22708 9.22708 9.33438 9.33438 9.22708 9.22708 9.33438 11.373 9.76356 11.0511 11.8022 14.4846 15.2357 6.65203 10.4073 5.79368 16.3087 13.0898 9.65626 10.0854 11.9095 6.54473 7.18849 7.18849 6.54473 6.54473 6.54473 7.40308 6.54473 6.54473 6.54473 6.54473 6.54473 6.97391 6.54473 6.54473 7.18849 7.18849 6.54473 6.54473 7.0812 6.54473 6.54473 7.18849 7.18849 6.54473 6.54473 7.18849 11.8022 7.72496 10.3 9.76356 9.97815 6.65203 7.83225 0.1 0.1 0.1 0.1 0.1 0.1 0.1 0.1 0.1 0.1 0.1 0.1 0.1 0.1 0.1 0.1 0.1 0.1 0.1 0.1 0.1 0.1 0.1 0.1 0.1 0.1 0.1 0.1 0.1 0.1 0.1 0.1 0.1 0.1 0.1 0.1 0.1 0.1 0.1 0.1 0.1 0.1 0.1 0.1 0.1 0.1 0.1 0.1 0.1 0.1 0.1 0.1 0.1 0.1 0.1 0.1 0.1 0.1 0.1 0.1 0.1 0.1 0.1 0.1 0.1 0.1 0.1 0.1 0.1 0.1 0.1 0.1 0.1 0.1 0.1 0.1 0.1 0.1 0.1 0.1 0.1 0.1 0.1 0.1 0.1 0.1 0.1 0.1 0.1 0.1 0.1 0.1 0.1 0.1 0.1 0.1 0.1 0.1 0.1 0.1 0.1 0.1 0.1 0.1 0.1 0.1 0.1 0.1 0.1 0.1 0.1 0.1 0.1 0.1 0.1 0.1 0.1 0.1 0.1 0.1 0.1 0.1 0.1 0.1 0.1 0.1 0.1 0.1 0.1 0.1 0.1 0.1 0.1 0.1 0.1 0.1 0.1 0.1 0.1 0.1 0.1 0.1 0.1 0.1 0.1 0.1 0.1 0.1 0.1 0.1 0.1 0.1 0.1 0.1 0.1 0.1 0.1 0.1 0.1 0.1 0.1 0.1 0.1 0.1 0.1 0.1 0.1 0.1 0.1 0.1 0.1 0.1 0.1 0.1 0.1 0.1 0.1 0.1 0.1 0.1 0.1 0.1 0.1 0.1 0.1 0.1 0.1 0.1 0.1 0.1 0.1 0.1 0.1 0.1 0.1 0.1 0.1 0.1 0.1 0.1 0.1 0.1 0.1 0.1 0.1 0.1 0.1 0.1 0.1 0.1 0.1 0.1 0.1 0.1 0.1 0.1 0.1 0.1 0.1 0.1 0.1 0.1 0.1 0.1 0.1 0.1 0.1 0.1 0.1 0.1 0.1 0.1 0.1 0.1 0.1 0.1 0.1 0.1 0.1 0.1 0.1 0.1 0.1 0.1 0.1 0.1 0.1 0.1 0.1 0.1 0.1 0.1 0.1 0.1 0.1 0.1 0.1 0.1 0.1 0.1 0.1 0.1 0.1 0.1 0.1 0.1 0.1 0.1 0.1 0.1 0.1 0.1 0.1 0.1 0.1 0.1 0.1 0.1 0.1 0.1 0.1 0.1 0.1 0.1 0.1 0.1 0.1 0.1 0.1 0.1 0.1 0.1 0.1 0.1 0.1 0.1 0.1 0.1 0.1 0.1 0.1 0.1 0.1 0.1 0.1 0.1 0.1 0.1 0.1 0.1 0.1 0.1 0.1 0.1 0.1 0.1 0.1 0.1 0.1 0.1 0.1 0.1 0.1 0.1 0.1 0.1 0.1 0.1 
</DataArray>

<DataArray type="Float32" Name="Density" format="ascii">
1000.01 1000.01 1000.01 1000.01 1000.01 1000.01 1000.01 1000.01 1000.01 1000.01 1000.01 1000.01 1000.01 1000.01 1000.01 1000.01 1000.01 1000.01 1000.01 1000.01 1000.01 1000.01 1000.01 1000.01 1000.01 1000.01 1000.01 1000.01 1000.01 1000.01 1000.01 1000.01 1000.01 1000.01 1000.01 1000.01 1000.01 1000.01 1000.01 1000.01 1000.01 1000.02 1000.02 1000.02 1000.01 1000.01 1000.01 1000.02 1000.01 1000.01 1000.01 1000.01 1000.01 1000.01 1000.01 1000.01 1000.01 1000.01 1000.01 1000.01 1000 1000.01 1000.01 1000.01 1000.01 1000.01 1000.01 1000 1000.01 1000.01 1000.01 1000.01 1000.01 1000.01 1000.01 1000.01 1000.01 1000.01 1000.01 1000.02 1000.02 1000.01 1000.02 1000.02 1000.02 1000.01 1000.01 1000.01 1000.01 1000 1000.01 1000.01 1000 1000 1000 999.999 1000 1000 1000 1000 1000 1000.01 1000 1000 1000.01 1000.01 1000 1000 1000.01 1000 1000 1000.01 1000.01 1000 1000 1000.01 1000.01 1000.01 1000 1000.01 1000.02 1000.01 1000.02 1000.01 1000.02 1000.01 1000.01 1000 1000.01 1000.01 1000.01 1000 1000 1000.01 1000.01 1000.01 1000.01 1000.01 1000.01 1000.01 1000.01 1000.01 1000 1000.01 1000.01 1000 1000 1000.01 1000.01 1000 1000.01 1000.01 1000 1000 1000.01 1000.01 1000 1000.01 1000.01 1000.01 1000.01 1000.01 1000.01 1000.01 1000.01 1000.01 1000.01 1000 1000 1000.01 1000.01 1000 1000.01 1000.01 1000 1000 1000 1000 1000 1000 1000 1000 1000 1000.01 1000 1000 1000.01 1000.01 1000 1000 1000.01 1000 1000 1000.01 1000.01 1000 1000 1000.01 1000.01 1000 1000 1000.01 1000 1000.01 1000.01 1000.01 1000.01 1000.01 1000 1000.01 1000 1000 1000 1000 1000 1000 1000 1000 1000 1000 1000 1000 1000 1000 1000 1000 1000 1000 1000 1000 1000 1000 1000 1000 1000 1000 1000 1000 1000 1000 1000 1000.01 1000.01 1000.01 1000.01 1000.01 1000.01 1000.01 1000 1000.01 1000.01 1000 1000.01 1000.01 1000 1000 1000.01 1000.01 1000.01 1000 1000.01 1000.01 1000.01 1000.01 1000.01 1000 1000.01 1000.01 1000 1000 1000.01 1000.01 1000 1000.01 1000.01 1000 1000 1000.01 1000.01 1000 1000.01 1000.01 1000 1000.01 1000.01 1000.01 1000.01 1000.01 1000.01 1000.01 1000.01 1000 1000 1000.01 1000 1000 1000 1000 1000 1000 1000.01 1000 1000 1000 1000 1000 1000 1000 1000 1000 1000 1000 1000 1000 1000 1000 1000 1000 1000 1000 1000 1000.01 1000 1000 1000.01 1000 1000.01 1000.01 1000.01 1000.02 1000.02 1000 1000.01 1000 1000 1000 1000 1000 1000 1000 1000 1000 1000 1000 1000 1000 1000 1000 1000 1000 1000 1000 1000 1000 1000 1000 1000 1000 1000 1000 1000 1000 1000 1000 1000.01 1000 1000.01 1000.01 1000.01 1000.01 1000.01 1000.01 1000 1000.01 1000 1000 1000 1000 1000 1000 1000 1000 1000 1000 1000 1000 1000 1000 1000 1000 1000 1000 1000 1000 1000 1000 1000 1000 1000 1000 1000 1000 1000 1000 1000 1000.01 1000 1000.01 1000.01 1000.01 1000.01 1000.01 1000 1000.01 1000 1000 1000.01 1000 1000 1000 1000 1000 1000 1000 1000 1000 1000 1000 1000 1000 1000 1000 1000 1000 1000 1000 1000 1000 1000 1000 1000 1000 1000 1000 1000.01 1000 1000 1000.01 1000 1000.01 1000.01 1000.01 1000.01 1000 1000.01 1000 1000 1000.01 1000 1000 1000 1000 1000 1000 1000 1000 1000 1000 1000 1000 1000 1000 1000 1000 1000 1000 1000 1000 1000 1000 1000 1000 1000 1000 1000 1000.01 1000 1000 1000.01 1000 1000.01 1000.01 1000.01 1000.01 1000 1000.01 1000 1000 1000.01 1000 1000 1000 1000 1000 1000 1000 1000 1000 1000 1000 1000 1000 1000 1000 1000 1000 1000 1000 1000 1000 1000 1000 1000 1000 1000 1000 1000.01 1000 1000 1000.01 1000 1000.01 1000.01 1000.01 1000.01 999.999 1000.01 1000 1000 1000 1000.01 1000 1000 1000 1000 1000 1000 1000 1000 1000 1000 1000 1000 1000 1000 1000 1000 1000 1000 1000 1000 1000 1000 1000 1000 1000 1000.01 1000 1000 1000 1000.01 999.999 1000.01 1000.01 1000.01 1000.01 1000 1000.01 1000 1000 1000.01 1000 1000 1000 1000 1000 1000 1000 1000 1000 1000 1000 1000 1000 1000 1000 1000 1000 1000 1000 1000 1000 1000 1000 1000 1000 1000 1000 1000.01 1000 1000 1000.01 1000 1000.01 1000.01 1000.01 1000.01 1000 1000.01 1000 1000 1000.01 1000 1000 1000 1000 1000 1000 1000 1000 1000 1000 1000 1000 1000 1000 1000 1000 1000 1000 1000 1000 1000 1000 1000 1000 1000 1000 1000 1000.01 1000 1000 1000.01 1000 1000.01 1000.01 1000.01 1000.01 1000 1000.01 1000 1000 1000.01 1000 1000 1000 1000 1000 1000 1000 1000 1000 1000 1000 1000 1000 1000 1000 1000 1000 1000 1000 1000 1000 1000 1000 1000 1000 1000 1000 1000.01 1000 1000 1000.01 1000 1000.01 1000.01 1000.01 1000.01 1000 1000.01 1000 1000 1000.01 1000 1000 1000 1000 1000 1000 1000 1000 1000 1000 1000 1000 1000 1000 1000 1000 1000 1000 1000 1000 1000 1000 1000 1000 1000 1000 1000 1000.01 1000 1000 1000.01 1000 1000.01 1000.01 1000.01 1000.01 1000 1000.01 1000 1000 1000.01 1000 1000 1000 1000 1000 1000 1000 1000 1000 1000 1000 1000 1000 1000 1000 1000 1000 1000 1000 1000 1000 1000 1000 1000 1000 1000 1000 1000.01 1000 1000 1000.01 1000 1000.01 1000.01 1000.01 1000 1000.01 1000 1000.01 1000 1000 1000 1000 1000 1000 1000 1000 1000 1000 1000 1000 1000 1000 1000 1000 1000 1000 1000 1000 1000 1000 1000 1000 1000 1000 1000 1000 1000 1000 1000 1000.01 1000 1000.01 1000 1000.01 1000.01 1000.01 1000 1000.01 1000 1000 1000.01 1000 1000 1000 1000 1000 1000 1000 1000 1000 1000 1000 1000 1000 1000 1000 1000 1000 1000 1000 1000 1000 1000 1000 1000 1000 1000 1000 1000.01 1000 1000 1000.01 1000 1000.01 1000.01 1000.01 1000.01 1000 1000.01 1000 1000 1000.01 1000 1000 1000 1000 1000 1000 1000 1000 1000 1000 1000 1000 1000 1000 1000 1000 1000 1000 1000 1000 1000 1000 1000 1000 1000 1000 1000 1000.01 1000 1000 1000.01 1000 1000.01 1000.01 1000.01 1000.01 1000.01 1000 1000.01 1000 1000 1000 1000 1000 1000 1000 1000 1000 1000 1000 1000 1000 1000 1000 1000 1000 1000 1000 1000 1000 1000 1000 1000 1000 1000 1000 1000 1000 1000 1000 1000.01 1000 1000.01 1000.01 1000.01 1000.01 1000.01 1000.01 1000 1000.01 1000 1000 1000 1000 1000 1000 1000 1000 1000 1000 1000 1000 1000 1000 1000 1000 1000 1000 1000 1000 1000 1000 1000 1000 1000 1000 1000 1000 1000 1000 1000 1000.01 1000 1000.01 1000.01 1000.01 1000.01 1000.01 1000 1000.01 1000 1000 1000.01 1000 1000 1000 1000 1000 1000 1000 1000 1000 1000 1000 1000 1000 1000 1000 1000 1000 1000 1000 1000 1000 1000 1000 1000 1000 1000 1000 1000.01 1000 1000 1000.01 1000 1000.01 1000.01 1000.01 1000.01 1000 1000.01 1000 1000 1000.01 1000 1000 1000 1000 1000 1000 1000 1000 1000 1000 1000 1000 1000 1000 1000 1000 1000 1000 1000 1000 1000 1000 1000 1000 1000 1000 1000 1000.01 1000 1000 1000.01 1000 1000.01 1000.01 1000.01 1000 1000.01 1000 1000.01 1000 1000 1000 1000 1000 1000 1000 1000 1000 1000 1000 1000 1000 1000 1000 1000 1000 1000 1000 1000 1000 1000 1000 1000 1000 1000 1000 1000 1000 1000 1000 1000.01 1000 1000.01 1000 1000.01 1000.01 1000.01 1000 1000.01 1000 1000 1000.01 1000 1000 1000 1000 1000 1000 1000 1000 1000 1000 1000 1000 1000 1000 1000 1000 1000 1000 1000 1000 1000 1000 1000 1000 1000 1000 1000 1000.01 1000 1000 1000.01 1000 1000.01 1000.01 1000.01 1000.01 1000 1000.01 1000 1000 1000.01 1000 1000 1000 1000 1000 1000 1000 1000 1000 1000 1000 1000 1000 1000 1000 1000 1000 1000 1000 1000 1000 1000 1000 1000 1000 1000 1000 1000.01 1000 1000 1000.01 1000 1000.01 1000.01 1000.01 1000.01 1000.01 1000 1000.01 1000 1000 1000 1000 1000 1000 1000 1000 1000 1000 1000 1000 1000 1000 1000 1000 1000 1000 1000 1000 1000 1000 1000 1000 1000 1000 1000 1000 1000 1000 1000 1000.01 1000 1000.01 1000.01 1000.01 1000.01 1000.01 1000.01 1000 1000.01 1000 1000 1000 1000 1000 1000 1000 1000 1000 1000 1000 1000 1000 1000 1000 1000 1000 1000 1000 1000 1000 1000 1000 1000 1000 1000 1000 1000 1000 1000 1000 1000.01 1000 1000.01 1000.01 1000.01 1000.01 1000.01 1000 1000.01 1000 1000 1000.01 1000 1000 1000 1000 1000 1000 1000 1000 1000 1000 1000 1000 1000 1000 1000 1000 1000 1000 1000 1000 1000 1000 1000 1000 1000 1000 1000 1000.01 1000 1000 1000.01 1000 1000.01 1000.01 1000.01 1000.01 1000 1000.01 1000 1000 1000.01 1000 1000 1000 1000 1000 1000 1000 1000 1000 1000 1000 1000 1000 1000 1000 1000 1000 1000 1000 1000 1000 1000 1000 1000 1000 1000 1000 1000.01 1000 1000 1000.01 1000 1000.01 1000.01 1000.01 1000.01 1000.01 1000 1000.01 1000 1000 1000 1000 1000 1000 1000 1000 1000.01 1000 1000 1000 1000 1000 1000 1000 1000 1000 1000 1000 1000 1000 1000 1000 1000 1000 1000 1000 1000 1000 1000 1000.01 1000 1000.01 1000.01 1000.01 1000.01 1000.01 1000.01 1000.01 1000.01 1000 1000.01 1000.01 1000 1000 1000.01 1000.01 1000.01 1000 1000.01 1000.01 1000.01 1000.01 1000.01 1000 1000.01 1000.01 1000 1000 1000.01 1000.01 1000 1000.01 1000.01 1000 1000 1000.01 1000.01 1000 1000.01 1000.01 1000.01 1000.01 1000.01 1000.01 1000.01 1000.01 1000.01 1000.01 1000.01 1000 1000 1000.01 1000 1000 1000 1000 1000 1000 1000 1000 1000 1000 1000 1000 1000 1000 1000 1000 1000 1000 1000 1000 1000 1000 1000 1000 1000 1000 1000 1000.01 1000.01 1000 1000.01 1000.01 1000.01 1000.01 1000.01 1000.01 1000 1000.01 1000 1000.01 1000 1000 1000.01 1000.01 1000 1000 1000 1000 1000 1000 1000 1000 1000 1000.01 1000 1000 1000.01 1000.01 1000 1000 1000.01 1000 1000 1000.01 1000.01 1000 1000 1000.01 1000.01 1000 1000 1000.01 1000.01 1000.01 1000.01 1000.01 1000.01 1000.01 1000.01 1000.01 1000.01 1000.01 1000.01 1000 1000 1000.01 1000.01 1000.01 1000.01 1000.01 1000.01 1000.01 1000.01 1000.01 1000 1000.01 1000.01 1000 1000 1000.01 1000.01 1000 1000.01 1000.01 1000 1000 1000.01 1000.01 1000 1000.01 1000.01 1000.01 1000 1000.01 1000.01 1000.01 1000.01 1000.02 1000.02 1000.01 1000 1000.01 1000.01 1000 1000.01 1000.01 1000 1000 1000 999.999 1000 1000 1000 1000 1000 1000.01 1000 1000 1000.01 1000.01 1000 1000 1000.01 1000 1000 1000.01 1000.01 1000 1000 1000.01 1000.01 1000.01 1000.01 1000.01 1000.02 1000.02 1000.01 1000.01 1000.02 1000.01 1000.01 1000.01 1000.01 1000.01 1000.01 1000.01 1000.01 1000.01 1000.01 1000.01 1000.01 1000.01 1000.01 1000.01 1000.01 1000.01 1000 1000.01 1000.01 1000.01 1000.01 1000.01 1000.01 1000 1000.01 1000.01 1000.01 1000.01 1000.01 1000.01 1000.01 1000.01 1000.01 1000.01 1000.01 1000.02 1000.02 1000.01 1000.01 1000.01 1000.02 1000.01 1000.01 1000.01 1000.01 1000.01 1000.01 1000.01 1000.01 1000.01 1000.01 1000.01 1000.01 1000.01 1000.01 1000.01 1000.01 1000.01 1000.01 1000.01 1000.01 1000.01 1000.01 1000.01 1000.01 1000.01 1000.01 1000.01 1000.01 1000.01 1000.01 1000.01 1000.01 1000.01 1000.01 1000.01 1000.01 1000.01 1000.01 1000 1000 1000 1000 1000 1000 1000 1000 1000 1000 1000 1000 1000 1000 1000 1000 1000 1000 1000 1000 1000 1000 1000 1000 1000 1000 1000 1000 1000 1000 1000 1000 1000 1000 1000 1000 1000 1000 1000 1000 1000 1000 1000 1000 1000 1000 1000 1000 1000 1000 1000 1000 1000 1000 1000 1000 1000 1000 1000 1000 1000 1000 1000 1000 1000 1000 1000 1000 1000 1000 1000 1000 1000 1000 1000 1000 1000 1000 1000 1000 1000 1000 1000 1000 1000 1000 1000 1000 1000 1000 1000 1000 1000 1000 1000 1000 1000 1000 1000 1000 1000 1000 1000 1000 1000 1000 1000 1000 1000 1000 1000 1000 1000 1000 1000 1000 1000 1000 1000 1000 1000 1000 1000 1000 1000 1000 1000 1000 1000 1000 1000 1000 1000 1000 1000 1000 1000 1000 1000 1000 1000 1000 1000 1000 1000 1000 1000 1000 1000 1000 1000 1000 1000 1000 1000 1000 1000 1000 1000 1000 1000 1000 1000 1000 1000 1000 1000 1000 1000 1000 1000 1000 1000 1000 1000 1000 1000 1000 1000 1000 1000 1000 1000 1000 1000 1000 1000 1000 1000 1000 1000 1000 1000 1000 1000 1000 1000 1000 1000 1000 1000 1000 1000 1000 1000 1000 1000 1000 1000 1000 1000 1000 1000 1000 1000 1000 1000 1000 1000 1000 1000 1000 1000 1000 1000 1000 1000 1000 1000 1000 1000 1000 1000 1000 1000 1000 1000 1000 1000 1000 1000 1000 1000 1000 1000 1000 1000 1000 1000 1000 1000 1000 1000 1000 1000 1000 1000 1000 1000 1000 1000 1000 1000 1000 1000 1000 1000 1000 1000 1000 1000 1000 1000 1000 1000 1000 1000 1000 1000 1000 1000 1000 1000 1000 1000 1000 1000 1000 1000 1000 1000 1000 1000 1000 1000 1000 1000 1000 1000 1000 1000 1000 1000 1000 1000 1000 1000 1000 1000 1000 1000 1000 1000 1000 1000 1000 1000 1000 1000 1000 1000 1000 1000 1000 1000 1000 1000 1000 
</DataArray>
<DataArray type="Float32" Name="Velocity" NumberOfComponents="3" format="ascii">
0.0043062936 0.0059493594 0
-6.5797809e-05 0.0058465265 0
-0.00035426507 0.005243409 0
0.00026944809 0.0046643596 0
0.00011734864 0.0039602537 0
0.00012570554 0.0028858241 0
1.6056914e-05 0.0039665275 0
4.499771e-06 0.003987005 0
1.5570754e-06 0.0028584329 0
2.3833022e-06 0.0028571985 0
-7.3388952e-07 0.003987004 0
-3.5979878e-07 0.0039870171 0
3.7225874e-07 0.0039870115 0
2.7219105e-10 0.0048445542 0
-8.4982912e-07 0.0039870185 0
-1.186167e-07 0.003987018 0
-8.2468446e-08 0.0039870176 0
-2.4902684e-07 0.0039870217 0
1.0979966e-06 0.0039870087 0
1.3236132e-06 0.0028388405 0
3.9337553e-07 0.0039870171 0
1.4528428e-08 0.0039870208 0
1.1497247e-07 0.002850963 0
-7.0690461e-08 0.0028509707 0
-1.7600561e-07 0.0039870185 0
-3.800512e-07 0.0039870162 0
2.9114108e-10 0.0028389152 0
3.800512e-07 0.0039870162 0
1.7600556e-07 0.0039870185 0
9.5172496e-08 0.0028509707 0
-1.098355e-06 0.0028507877 0
-3.6228869e-07 0.0039870185 0
3.6664505e-07 0.003987019 0
-1.0920998e-05 0.0028509405 0
-5.3374486e-05 0.002851814 0
-0.00018447927 0.0039162971 0
-0.00011619114 0.0039121644 0
-0.00017226374 0.0028895733 0
-0.0010554302 0.0040481002 0
3.3441967e-05 0.0038306215 0
-0.004629577 0.0043718172 0
0.004174931 0.0011770454 0
0.00067295588 0.0012774226 0
0.00011032372 0.00046537863 0
0.00014338114 0.00073963392 0
0.00020657878 0.00092976523 0
0.00010218653 0.00054255774 0
6.5785949e-05 0.001085607 0
2.119465e-05 0.0011163781 0
6.0841594e-06 0.00087497127 0
8.7435019e-06 0.00087515177 0
2.8727004e-06 0.0011163935 0
3.8578446e-06 0.0011163903 0
6.4915862e-06 0.0011166794 0
-7.2598158e-07 0.0013629849 0
-2.89888e-06 0.0011165434 0
1.2102279e-06 0.0011166607 0
3.9030911e-06 0.001116682 0
3.7630059e-06 0.0011166657 0
4.6079931e-06 0.0011165387 0
-4.6424642e-08 0.00072945742 0
-1.3272272e-06 0.0011165326 0
-7.0225622e-07 0.001116386 0
2.393896e-06 0.00087452866 0
-2.8283625e-06 0.00087454752 0
1.1903413e-06 0.0011165077 0
2.246127e-06 0.001116497 0
1.6992342e-07 0.00072932511 0
-3.8873113e-06 0.0011165122 0
-2.4147535e-06 0.0011164953 0
-3.4136604e-06 0.00087457645 0
-3.4621571e-06 0.0008746612 0
-8.2701508e-06 0.0011164855 0
-5.4379475e-06 0.001116452 0
-1.9870251e-05 0.00087401882 0
-4.1092637e-05 0.00086503039 0
-0.0002080499 0.0010374632 0
-9.9238823e-05 0.0011036636 0
-0.00023493152 0.00056306156 0
-0.00046690134 0.00031827431 0
-0.00053657754 0.00055091718 0
-0.003784019 -9.7932912e-05 0
0.003454864 0.00061880314 0
0.00019357944 0.00028524298 0
0.00073710823 2.3037142e-05 0
0.00037007302 5.4708944e-05 0
0.00013910509 -0.00013988042 0
0.00021093444 2.4743225e-05 0
4.2046984e-05 8.4054431e-05 0
-1.3202982e-05 0.00010796844 0
2.1434557e-06 0.00018066414 0
7.3481027e-07 0.00018094709 0
8.6495538e-06 0.00010761586 0
1.0225543e-06 0.00010693038 0
2.9954288e-07 0.00010678204 0
-8.7191046e-07 7.2893345e-05 0
3.0635242e-08 0.00010698464 0
-4.1830054e-07 0.00010707182 0
9.1234725e-08 0.00010705139 0
1.8764416e-06 0.00010706027 0
-5.7089653e-07 0.00010690109 0
1.8162834e-06 0.00017840369 0
6.3423562e-07 0.0001068954 0
-8.3032555e-06 0.00010689753 0
-1.0250825e-06 0.00018187982 0
1.5607463e-06 0.00018192934 0
5.5659366e-06 0.00010691222 0
-3.5907046e-06 0.00010704967 0
-2.4566859e-06 0.00017801658 0
-1.6554649e-06 0.00010712119 0
-2.6625521e-06 0.00010718765 0
7.9514103e-07 0.00018157717 0
-2.8009356e-06 0.00018134766 0
6.8825975e-06 0.0001072571 0
-9.7602942e-06 0.00010760386 0
-1.3828977e-05 0.00018091213 0
-4.4186709e-05 0.00017049172 0
-0.00010814211 1.8701658e-05 0
-0.00010918732 5.804182e-05 0
-0.00033984456 0.00018817247 0
-0.00043848142 0.0004648196 0
-0.000229103 0.00054249761 0
-0.0038955319 0.00094542105 0
0.0040741945 0.00046988766 0
0.00079469348 0.00046711173 0
0.00054616394 0.0003764705 0
0.00017316514 0.00016361641 0
5.937753e-06 0.00024844511 0
9.2242488e-05 0.00014133655 0
0.0001161926 0.00015705504 0
8.5962283e-06 0.0001523657 0
-9.4919699e-07 0.00012942681 0
4.0578675e-06 0.00012962086 0
-1.2359242e-06 0.00015204333 0
2.7937185e-06 0.00015158742 0
4.2415313e-06 0.00015127663 0
1.6436055e-06 0.000217426 0
-4.7865541e-07 0.0001513258 0
-3.326461e-07 0.00015135523 0
2.7653385e-07 0.00015135562 0
2.459509e-07 0.0001513545 0
5.3863459e-07 0.00015181475 0
-4.492761e-06 0.00010307706 0
-7.551418e-07 0.00015197168 0
1.7162146e-06 0.00015205436 0
1.0100401e-06 0.00012962203 0
-5.6607144e-07 0.00012963227 0
-1.0169216e-06 0.0001519201 0
2.3512941e-06 0.00015189931 0
7.5257853e-09 0.00010316925 0
-2.307663e-06 0.00015190001 0
1.0525483e-06 0.00015192213 0
6.0300817e-07 0.00012967229 0
-7.8914081e-07 0.00012977324 0
-4.366048e-06 0.00015208508 0
-9.5859778e-06 0.00015245167 0
-1.6474591e-05 0.00012974422 0
-8.554435e-05 0.00012271269 0
-7.2803028e-05 0.00020599946 0
-0.00011952178 0.00016813514 0
-0.00022419308 0.00019522374 0
-7.6616408e-05 0.00034433635 0
-0.00099452143 0.00011411485 0
-0.0040337597 0.00033698394 0
0.004148189 0.00056659686 0
0.0010147749 0.00015064608 0
0.00019830449 0.00015734287 0
0.00017609638 8.1423605e-05 0
7.7404555e-05 6.4800741e-05 0
4.7005724e-05 0.00012432516 0
5.9585185e-05 7.4933763e-05 0
3.6625388e-06 7.3848903e-05 0
-1.0892051e-06 8.4670239e-05 0
7.9878209e-06 8.4407518e-05 0
-9.022952e-07 7.3578864e-05 0
-7.3365197e-07 7.3628049e-05 0
1.5648776e-07 7.3414594e-05 0
-1.4369533e-07 8.4611813e-05 0
-3.666259e-07 7.3412106e-05 0
1.4178316e-07 7.3448093e-05 0
1.5371616e-07 7.3447271e-05 0
3.6705342e-07 7.3447467e-05 0
1.0667247e-06 7.3569303e-05 0
5.1435745e-07 8.0928636e-05 0
1.0769968e-07 7.3544237e-05 0
-6.3024868e-07 7.3688389e-05 0
-2.7114572e-06 8.2963757e-05 0
4.235862e-06 8.3013954e-05 0
-2.2962178e-07 7.3548304e-05 0
-2.9733158e-09 7.354148e-05 0
1.4352963e-15 8.0977101e-05 0
2.9622784e-09 7.354148e-05 0
2.296218e-07 7.3548312e-05 0
-4.2362508e-06 8.3013976e-05 0
4.3024693e-06 8.3007726e-05 0
-3.7741805e-07 7.3545627e-05 0
-2.0750259e-07 7.3592259e-05 0
-9.3711169e-06 8.2993902e-05 0
-6.4542102e-05 9.3146926e-05 0
-0.00014750226 4.1898729e-05 0
-6.700692e-05 0.00013240553 0
-0.00016604637 0.0001143636 0
-8.087945e-05 5.9442031e-05 0
-0.0011006384 0.00020687483 0
-0.0037838626 0.0002796051 0
0.0028952609 0.00015295169 0
0.00071225368 0.00014513127 0
0.0003208064 7.5484284e-05 0
8.0959289e-05 6.9772854e-05 0
0.00013940799 8.7895365e-05 0
1.4854374e-05 2.7673152e-05 0
1.1616838e-05 9.2246984e-05 0
7.6915121e-06 8.0548452e-05 0
3.3006736e-06 4.9717246e-06 0
-1.357717e-06 4.9368277e-06 0
1.6905197e-07 8.05206e-05 0
-5.0270586e-07 8.0522805e-05 0
-1.4489132e-06 8.0478741e-05 0
5.0461858e-07 6.6509725e-05 0
-4.143497e-07 8.0489568e-05 0
7.292077e-08 8.0522695e-05 0
6.1365643e-07 8.0522819e-05 0
-2.3722448e-07 8.0522695e-05 0
4.5633419e-07 8.0520593e-05 0
8.268027e-07 4.7634917e-06 0
1.0587096e-07 8.0527447e-05 0
8.4600873e-07 8.0522797e-05 0
9.1167254e-07 4.8380325e-06 0
-9.1173132e-07 4.8380516e-06 0
-1.2634462e-07 8.0522368e-05 0
2.4571719e-08 8.0523707e-05 0
3.1839422e-15 4.7770054e-06 0
-2.4571719e-08 8.0523707e-05 0
1.2634462e-07 8.0522368e-05 0
9.1173104e-07 4.8380516e-06 0
-9.1174218e-07 4.8380448e-06 0
-3.6200953e-07 8.0522019e-05 0
3.6212279e-07 8.0522128e-05 0
-1.4444197e-06 4.7465332e-06 0
-5.1007151e-05 -6.4139795e-06 0
7.2440107e-06 0.00015919792 0
-7.6448225e-05 0.00013504919 0
-0.00018674252 2.9523366e-05 0
-0.00017238721 0.00017755748 0
-0.00080878026 0.00010704064 0
-0.0028583715 5.0371425e-05 0
0.0039208177 3.0949555e-05 0
0.0012015472 3.0208417e-05 0
0.00019194941 8.9489695e-05 0
0.00014329166 0.00013045693 0
0.0001502223 7.1682138e-05 0
0.00010791166 -6.9527728e-06 0
5.1641491e-05 5.1162624e-05 0
4.3103496e-06 4.9452367e-05 0
2.2427757e-06 -2.9884843e-09 0
-3.6873041e-07 2.1938482e-09 0
-2.4143614e-07 4.9442748e-05 0
-4.0722853e-08 4.9442922e-05 0
5.4185307e-07 4.9442449e-05 0
7.7225309e-12 7.1016322e-05 0
-5.280238e-07 4.9442711e-05 0
-2.9267295e-07 4.9442981e-05 0
-2.1515555e-07 4.944293e-05 0
-2.6939202e-07 4.944317e-05 0
1.4964147e-07 4.9444807e-05 0
-3.831974e-08 -3.8595682e-09 0
4.6570381e-07 4.944632e-05 0
4.2627252e-07 4.9443588e-05 0
3.6775529e-07 1.9097106e-09 0