<?xml version="1.0" ?>

<VTKFile type="UnstructuredGrid" version="0.1" byte_order="BigEndian">

<UnstructuredGrid>

<Piece NumberOfPoints= " 2009 " NumberOfCells=" 2009 ">

<PointData Scalars="Pressure" Vectors="Velocity">

<DataArray type="Float32" Name="Pressure" format="ascii">

18.6693 16.2014 22.8542 9.87085 8.26143 9.54897 8.15414 8.15414 9.97815 9.97815 8.15414 8.15414 8.15414 7.61767 8.15414 8.15414 8.15414 8.15414 8.15414 9.54897 8.15414 8.15414 9.97815 9.97815 8.15414 8.15414 9.54897 8.15414 8.15414 9.97815 9.97815 8.15414 8.15414 9.97815 9.97815 8.15414 8.15414 12.9825 27.2537 17.489 19.2058 23.6053 17.2744 21.8884 6.97391 5.79368 9.22708 5.90098 5.90098 9.76356 9.76356 5.90098 5.90098 5.90098 5.68639 5.90098 5.90098 5.90098 5.90098 5.90098 9.22708 5.90098 5.90098 9.76356 9.76356 5.90098 5.90098 9.22708 5.90098 5.90098 9.76356 9.76356 5.90098 5.90098 9.76356 9.76356 5.90098 5.90098 11.6949 20.1716 13.8408 19.4205 24.1418 16.2014 24.893 8.47602 8.04684 4.61347 7.83225 7.83225 4.61347 4.61347 7.83225 7.83225 7.83225 5.90098 7.83225 7.83225 7.83225 7.83225 7.83225 4.61347 7.83225 7.83225 4.61347 4.61347 7.83225 7.83225 4.61347 7.83225 7.83225 4.61347 4.61347 7.83225 7.83225 4.61347 4.61347 7.83225 7.83225 9.65626 28.5414 19.2058 27.1464 14.5919 11.5876 13.197 9.33438 2.57494 0 2.68223 2.68223 0 0 2.68223 2.68223 2.68223 7.29579 2.68223 2.68223 2.68223 2.68223 2.68223 0 2.68223 2.68223 0 0 2.68223 2.68223 0 2.68223 2.68223 0 0 2.68223 2.68223 0 0 2.68223 2.68223 4.82805 13.197 9.65626 14.27 16.3087 14.4846 17.3817 5.04264 0 0 0 0 0 0 0 0 0 0.429154 0 0 0 0 0 0 0 0 0 0 0 0 0 0 0 0 0 0 0 0 0 0 0 2.57494 8.04684 5.79368 8.26143 10.1927 9.87085 4.61347 0 0 0 0 0 0 0 0 0 0 0 0 0 0 0 0 0 0 0 0 0 0 0 0 0 0 0 0 0 0 0 0 0 0 0 4.61347 9.76356 9.97815 8.15414 5.90098 7.83225 2.68223 0 0 0 0 0 0 0 0 0 0 0 0 0 0 0 0 0 0 0 0 0 0 0 0 0 0 0 0 0 0 0 0 0 2.68223 7.83225 5.90098 8.15414 8.15414 5.90098 7.83225 2.68223 0 0 0 0 0 0 0 0 0 0 0 0 0 0 0 0 0 0 0 0 0 0 0 0 0 0 0 0 0 0 0 0 0 2.68223 7.83225 5.90098 8.15414 9.97815 9.76356 4.61347 0 0 0 0 0 0 0 0 0 0 0 0 0 0 0 0 0 0 0 0 0 0 0 0 0 0 0 0 0 0 0 0 0 0 0 4.61347 9.76356 9.97815 9.97815 9.76356 4.61347 0 0 0 0 0 0 0 0 0 0 0 0 0 0 0 0 0 0 0 0 0 0 0 0 0 0 0 0 0 0 0 0 0 0 0 4.61347 9.76356 9.97815 8.15414 5.90098 7.83225 2.68223 0 0 0 0 0 0 0 0 0 0 0 0 0 0 0 0 0 0 0 0 0 0 0 0 0 0 0 0 0 0 0 0 0 2.68223 7.83225 5.90098 8.15414 8.15414 5.90098 7.83225 2.68223 0 0 0 0 0 0 0 0 0 0 0 0 0 0 0 0 0 0 0 0 0 0 0 0 0 0 0 0 0 0 0 0 0 2.68223 7.83225 5.90098 8.15414 8.15414 5.90098 7.83225 2.68223 0 0 0 0 0 0 0 0 0 0 0 0 0 0 0 0 0 0 0 0 0 0 0 0 0 0 0 0 0 0 0 0 0 2.68223 7.83225 5.90098 8.15414 7.61767 5.68639 5.90098 7.29579 0.429154 0 0 0 0 0 0 0 0 0 0 0 0 0 0 0 0 0 0 0 0 0 0 0 0 0 0 0 0 0 0 0 0.429154 7.29579 5.90098 5.68639 7.61767 8.15414 5.90098 7.83225 2.68223 0 0 0 0 0 0 0 0 0 0 0 0 0 0 0 0 0 0 0 0 0 0 0 0 0 0 0 0 0 0 0 0 0 2.68223 7.83225 5.90098 8.15414 8.15414 5.90098 7.83225 2.68223 0 0 0 0 0 0 0 0 0 0 0 0 0 0 0 0 0 0 0 0 0 0 0 0 0 0 0 0 0 0 0 0 0 2.68223 7.83225 5.90098 8.15414 8.15414 5.90098 7.83225 2.68223 0 0 0 0 0 0 0 0 0 0 0 0 0 0 0 0 0 0 0 0 0 0 0 0 0 0 0 0 0 0 0 0 0 2.68223 7.83225 5.90098 8.15414 8.15414 5.90098 7.83225 2.68223 0 0 0 0 0 0 0 0 0 0 0 0 0 0 0 0 0 0 0 0 0 0 0 0 0 0 0 0 0 0 0 0 0 2.68223 7.83225 5.90098 8.15414 8.15414 5.90098 7.83225 2.68223 0 0 0 0 0 0 0 0 0 0 0 0 0 0 0 0 0 0 0 0 0 0 0 0 0 0 0 0 0 0 0 0 0 2.68223 7.83225 5.90098 8.15414 9.54897 9.22708 4.61347 0 0 0 0 0 0 0 0 0 0 0 0 0 0 0 0 0 0 0 0 0 0 0 0 0 0 0 0 0 0 0 0 0 0 0 4.61347 9.22708 9.54897 8.15414 5.90098 7.83225 2.68223 0 0 0 0 0 0 0 0 0 0 0 0 0 0 0 0 0 0 0 0 0 0 0 0 0 0 0 0 0 0 0 0 0 2.68223 7.83225 5.90098 8.15414 8.15414 5.90098 7.83225 2.68223 0 0 0 0 0 0 0 0 0 0 0 0 0 0 0 0 0 0 0 0 0 0 0 0 0 0 0 0 0 0 0 0 0 2.68223 7.83225 5.90098 8.15414 9.97815 9.76356 4.61347 0 0 0 0 0 0 0 0 0 0 0 0 0 0 0 0 0 0 0 0 0 0 0 0 0 0 0 0 0 0 0 0 0 0 0 4.61347 9.76356 9.97815 9.97815 9.76356 4.61347 0 0 0 0 0 0 0 0 0 0 0 0 0 0 0 0 0 0 0 0 0 0 0 0 0 0 0 0 0 0 0 0 0 0 0 4.61347 9.76356 9.97815 8.15414 5.90098 7.83225 2.68223 0 0 0 0 0 0 0 0 0 0 0 0 0 0 0 0 0 0 0 0 0 0 0 0 0 0 0 0 0 0 0 0 0 2.68223 7.83225 5.90098 8.15414 8.15414 5.90098 7.83225 2.68223 0 0 0 0 0 0 0 0 0 0 0 0 0 0 0 0 0 0 0 0 0 0 0 0 0 0 0 0 0 0 0 0 0 2.68223 7.83225 5.90098 8.15414 9.54897 9.22708 4.61347 0 0 0 0 0 0 0 0 0 0 0 0 0 0 0 0 0 0 0 0 0 0 0 0 0 0 0 0 0 0 0 0 0 0 0 4.61347 9.22708 9.54897 8.15414 5.90098 7.83225 2.68223 0 0 0 0 0 0 0 0 0 0 0 0 0 0 0 0 0 0 0 0 0 0 0 0 0 0 0 0 0 0 0 0 0 2.68223 7.83225 5.90098 8.15414 8.15414 5.90098 7.83225 2.68223 0 0 0 0 0 0 0 0 0 0 0 0 0 0 0 0 0 0 0 0 0 0 0 0 0 0 0 0 0 0 0 0 0 2.68223 7.83225 5.90098 8.15414 9.97815 9.76356 4.61347 0 0 0 0 0 0 0 0 0 0 0 0 0 0 0 0 0 0 0 0 0 0 0 0 0 0 0 0 0 0 0 0 0 0 0 4.61347 9.76356 9.97815 9.97815 9.76356 4.61347 0 0 0 0 0 0 0 0 0 0 0 0 0 0 0 0 0 0 0 0 0 0 0 0 0 0 0 0 0 0 0 0 0 0 0 4.61347 9.76356 9.97815 8.15414 5.90098 7.83225 2.68223 0 0 0 0 0 0 0 0 0 0 0 0 0 0 0 0 0 0 0 0 0 0 0 0 0 0 0 0 0 0 0 0 0 2.68223 7.83225 5.90098 8.15414 8.15414 5.90098 7.83225 2.68223 0 0 0 0 0 0 0 0 0 0 0 0 0 0 0 0 0 0 0 0 0 0 0 0 0 0 0 0 0 0 0 0 0 2.68223 7.83225 5.90098 8.15414 9.97815 9.76356 4.61347 0 0 0 0 0 0 0 0 0 0 0 0 0 0 0 0 0 0 0 0 0 0 0 0 0 0 0 0 0 0 0 0 0 0 0 4.61347 9.76356 9.97815 9.97815 9.76356 4.61347 0 0 0 0 0 0 0 0 0 0 0 0 0 0 0 0 0 0 0 0 0 0 0 0 0 0 0 0 0 0 0 0 0 0 0 4.61347 9.76356 9.97815 8.15414 5.90098 7.83225 2.68223 0 0 0 0 0 0 0 0 0 0 0 0 0 0 0 0 0 0 0 0 0 0 0 0 0 0 0 0 0 0 0 0 0 2.68223 7.83225 5.90098 8.15414 8.15414 5.90098 7.83225 2.68223 0 0 0 0 0 0 0 0 0 0.429154 0 0 0 0 0 0 0 0 0 0 0 0 0 0 0 0 0 0 0 0 0 0 0 2.68223 7.83225 5.90098 8.15414 12.9825 11.6949 9.65626 4.82805 2.57494 0 2.68223 2.68223 0 0 2.68223 2.68223 2.68223 7.29579 2.68223 2.68223 2.68223 2.68223 2.68223 0 2.68223 2.68223 0 0 2.68223 2.68223 0 2.68223 2.68223 0 0 2.68223 2.68223 0 0 2.68223 2.68223 1.9312 9.97815 12.0168 13.197 27.2537 20.1716 28.5414 13.197 8.04684 4.61347 7.83225 7.83225 4.61347 4.61347 7.83225 7.83225 7.83225 5.90098 7.83225 7.83225 7.83225 7.83225 7.83225 4.61347 7.83225 7.83225 4.61347 4.61347 7.83225 7.83225 4.61347 7.83225 7.83225 4.61347 4.61347 7.83225 7.83225 4.61347 4.61347 7.83225 7.83225 9.97815 27.8976 19.8497 25.0003 17.489 13.8408 19.2058 9.65626 5.79368 9.76356 5.90098 5.90098 9.76356 9.76356 5.90098 5.90098 5.90098 5.68639 5.90098 5.90098 5.90098 5.90098 5.90098 9.22708 5.90098 5.90098 9.76356 9.76356 5.90098 5.90098 9.22708 5.90098 5.90098 9.76356 9.76356 5.90098 5.90098 9.76356 9.76356 5.90098 5.90098 12.0168 19.8497 13.5189 19.4205 19.2058 19.4205 27.1464 14.27 8.26143 9.97815 8.15414 8.15414 9.97815 9.97815 8.15414 8.15414 8.15414 7.61767 8.15414 8.15414 8.15414 8.15414 8.15414 9.54897 8.15414 8.15414 9.97815 9.97815 8.15414 8.15414 9.54897 8.15414 8.15414 9.97815 9.97815 8.15414 8.15414 9.97815 9.97815 8.15414 8.15414 13.197 25.0003 19.4205 16.6306 0.1 0.1 0.1 0.1 0.1 0.1 0.1 0.1 0.1 0.1 0.1 0.1 0.1 0.1 0.1 0.1 0.1 0.1 0.1 0.1 0.1 0.1 0.1 0.1 0.1 0.1 0.1 0.1 0.1 0.1 0.1 0.1 0.1 0.1 0.1 0.1 0.1 0.1 0.1 0.1 0.1 0.1 0.1 0.1 0.1 0.1 0.1 0.1 0.1 0.1 0.1 0.1 0.1 0.1 0.1 0.1 0.1 0.1 0.1 0.1 0.1 0.1 0.1 0.1 0.1 0.1 0.1 0.1 0.1 0.1 0.1 0.1 0.1 0.1 0.1 0.1 0.1 0.1 0.1 0.1 0.1 0.1 0.1 0.1 0.1 0.1 0.1 0.1 0.1 0.1 0.1 0.1 0.1 0.1 0.1 0.1 0.1 0.1 0.1 0.1 0.1 0.1 0.1 0.1 0.1 0.1 0.1 0.1 0.1 0.1 0.1 0.1 0.1 0.1 0.1 0.1 0.1 0.1 0.1 0.1 0.1 0.1 0.1 0.1 0.1 0.1 0.1 0.1 0.1 0.1 0.1 0.1 0.1 0.1 0.1 0.1 0.1 0.1 0.1 0.1 0.1 0.1 0.1 0.1 0.1 0.1 0.1 0.1 0.1 0.1 0.1 0.1 0.1 0.1 0.1 0.1 0.1 0.1 0.1 0.1 0.1 0.1 0.1 0.1 0.1 0.1 0.1 0.1 0.1 0.1 0.1 0.1 0.1 0.1 0.1 0.1 0.1 0.1 0.1 0.1 0.1 0.1 0.1 0.1 0.1 0.1 0.1 0.1 0.1 0.1 0.1 0.1 0.1 0.1 0.1 0.1 0.1 0.1 0.1 0.1 0.1 0.1 0.1 0.1 0.1 0.1 0.1 0.1 0.1 0.1 0.1 0.1 0.1 0.1 0.1 0.1 0.1 0.1 0.1 0.1 0.1 0.1 0.1 0.1 0.1 0.1 0.1 0.1 0.1 0.1 0.1 0.1 0.1 0.1 0.1 0.1 0.1 0.1 0.1 0.1 0.1 0.1 0.1 0.1 0.1 0.1 0.1 0.1 0.1 0.1 0.1 0.1 0.1 0.1 0.1 0.1 0.1 0.1 0.1 0.1 0.1 0.1 0.1 0.1 0.1 0.1 0.1 0.1 0.1 0.1 0.1 0.1 0.1 0.1 0.1 0.1 0.1 0.1 0.1 0.1 0.1 0.1 0.1 0.1 0.1 0.1 0.1 0.1 0.1 0.1 0.1 0.1 0.1 0.1 0.1 0.1 0.1 0.1 0.1 0.1 0.1 0.1 0.1 0.1 0.1 0.1 0.1 0.1 0.1 0.1 0.1 0.1 0.1 0.1 0.1 0.1 0.1 0.1 0.1 0.1 0.1 0.1 0.1 0.1 0.1 0.1 0.1 0.1 
</DataArray>

<DataArray type="Float32" Name="Density" format="ascii">
1000.02 1000.02 1000.03 1000.01 1000.01 1000.01 1000.01 1000.01 1000.01 1000.01 1000.01 1000.01 1000.01 1000.01 1000.01 1000.01 1000.01 1000.01 1000.01 1000.01 1000.01 1000.01 1000.01 1000.01 1000.01 1000.01 1000.01 1000.01 1000.01 1000.01 1000.01 1000.01 1000.01 1000.01 1000.01 1000.01 1000.01 1000.01 1000.03 1000.02 1000.02 1000.03 1000.02 1000.02 1000.01 1000.01 1000.01 1000.01 1000.01 1000.01 1000.01 1000.01 1000.01 1000.01 1000.01 1000.01 1000.01 1000.01 1000.01 1000.01 1000.01 1000.01 1000.01 1000.01 1000.01 1000.01 1000.01 1000.01 1000.01 1000.01 1000.01 1000.01 1000.01 1000.01 1000.01 1000.01 1000.01 1000.01 1000.01 1000.02 1000.02 1000.02 1000.03 1000.02 1000.03 1000.01 1000.01 1000.01 1000.01 1000.01 1000.01 1000.01 1000.01 1000.01 1000.01 1000.01 1000.01 1000.01 1000.01 1000.01 1000.01 1000.01 1000.01 1000.01 1000.01 1000.01 1000.01 1000.01 1000.01 1000.01 1000.01 1000.01 1000.01 1000.01 1000.01 1000.01 1000.01 1000.01 1000.01 1000.01 1000.03 1000.02 1000.03 1000.02 1000.01 1000.01 1000.01 1000 1000 1000 1000 1000 1000 1000 1000 1000 1000.01 1000 1000 1000 1000 1000 1000 1000 1000 1000 1000 1000 1000 1000 1000 1000 1000 1000 1000 1000 1000 1000 1000 1000 1000.01 1000.01 1000.01 1000.02 1000.02 1000.02 1000.02 1000.01 1000 1000 1000 1000 1000 1000 1000 1000 1000 1000 1000 1000 1000 1000 1000 1000 1000 1000 1000 1000 1000 1000 1000 1000 1000 1000 1000 1000 1000 1000 1000 1000 1000 1000 1000.01 1000.01 1000.01 1000.01 1000.01 1000.01 1000 1000 1000 1000 1000 1000 1000 1000 1000 1000 1000 1000 1000 1000 1000 1000 1000 1000 1000 1000 1000 1000 1000 1000 1000 1000 1000 1000 1000 1000 1000 1000 1000 1000 1000 1000.01 1000.01 1000.01 1000.01 1000.01 1000.01 1000 1000 1000 1000 1000 1000 1000 1000 1000 1000 1000 1000 1000 1000 1000 1000 1000 1000 1000 1000 1000 1000 1000 1000 1000 1000 1000 1000 1000 1000 1000 1000 1000 1000 1000 1000.01 1000.01 1000.01 1000.01 1000.01 1000.01 1000 1000 1000 1000 1000 1000 1000 1000 1000 1000 1000 1000 1000 1000 1000 1000 1000 1000 1000 1000 1000 1000 1000 1000 1000 1000 1000 1000 1000 1000 1000 1000 1000 1000 1000 1000.01 1000.01 1000.01 1000.01 1000.01 1000.01 1000 1000 1000 1000 1000 1000 1000 1000 1000 1000 1000 1000 1000 1000 1000 1000 1000 1000 1000 1000 1000 1000 1000 1000 1000 1000 1000 1000 1000 1000 1000 1000 1000 1000 1000 1000.01 1000.01 1000.01 1000.01 1000.01 1000.01 1000 1000 1000 1000 1000 1000 1000 1000 1000 1000 1000 1000 1000 1000 1000 1000 1000 1000 1000 1000 1000 1000 1000 1000 1000 1000 1000 1000 1000 1000 1000 1000 1000 1000 1000 1000.01 1000.01 1000.01 1000.01 1000.01 1000.01 1000 1000 1000 1000 1000 1000 1000 1000 1000 1000 1000 1000 1000 1000 1000 1000 1000 1000 1000 1000 1000 1000 1000 1000 1000 1000 1000 1000 1000 1000 1000 1000 1000 1000 1000 1000.01 1000.01 1000.01 1000.01 1000.01 1000.01 1000 1000 1000 1000 1000 1000 1000 1000 1000 1000 1000 1000 1000 1000 1000 1000 1000 1000 1000 1000 1000 1000 1000 1000 1000 1000 1000 1000 1000 1000 1000 1000 1000 1000 1000 1000.01 1000.01 1000.01 1000.01 1000.01 1000.01 1000 1000 1000 1000 1000 1000 1000 1000 1000 1000 1000 1000 1000 1000 1000 1000 1000 1000 1000 1000 1000 1000 1000 1000 1000 1000 1000 1000 1000 1000 1000 1000 1000 1000 1000 1000.01 1000.01 1000.01 1000.01 1000.01 1000.01 1000.01 1000 1000 1000 1000 1000 1000 1000 1000 1000 1000 1000 1000 1000 1000 1000 1000 1000 1000 1000 1000 1000 1000 1000 1000 1000 1000 1000 1000 1000 1000 1000 1000 1000 1000.01 1000.01 1000.01 1000.01 1000.01 1000.01 1000.01 1000 1000 1000 1000 1000 1000 1000 1000 1000 1000 1000 1000 1000 1000 1000 1000 1000 1000 1000 1000 1000 1000 1000 1000 1000 1000 1000 1000 1000 1000 1000 1000 1000 1000 1000 1000.01 1000.01 1000.01 1000.01 1000.01 1000.01 1000 1000 1000 1000 1000 1000 1000 1000 1000 1000 1000 1000 1000 1000 1000 1000 1000 1000 1000 1000 1000 1000 1000 1000 1000 1000 1000 1000 1000 1000 1000 1000 1000 1000 1000 1000.01 1000.01 1000.01 1000.01 1000.01 1000.01 1000 1000 1000 1000 1000 1000 1000 1000 1000 1000 1000 1000 1000 1000 1000 1000 1000 1000 1000 1000 1000 1000 1000 1000 1000 1000 1000 1000 1000 1000 1000 1000 1000 1000 1000 1000.01 1000.01 1000.01 1000.01 1000.01 1000.01 1000 1000 1000 1000 1000 1000 1000 1000 1000 1000 1000 1000 1000 1000 1000 1000 1000 1000 1000 1000 1000 1000 1000 1000 1000 1000 1000 1000 1000 1000 1000 1000 1000 1000 1000 1000.01 1000.01 1000.01 1000.01 1000.01 1000.01 1000 1000 1000 1000 1000 1000 1000 1000 1000 1000 1000 1000 1000 1000 1000 1000 1000 1000 1000 1000 1000 1000 1000 1000 1000 1000 1000 1000 1000 1000 1000 1000 1000 1000 1000 1000.01 1000.01 1000.01 1000.01 1000.01 1000.01 1000 1000 1000 1000 1000 1000 1000 1000 1000 1000 1000 1000 1000 1000 1000 1000 1000 1000 1000 1000 1000 1000 1000 1000 1000 1000 1000 1000 1000 1000 1000 1000 1000 1000 1000 1000.01 1000.01 1000.01 1000.01 1000.01 1000.01 1000 1000 1000 1000 1000 1000 1000 1000 1000 1000 1000 1000 1000 1000 1000 1000 1000 1000 1000 1000 1000 1000 1000 1000 1000 1000 1000 1000 1000 1000 1000 1000 1000 1000 1000 1000.01 1000.01 1000.01 1000.01 1000.01 1000.01 1000 1000 1000 1000 1000 1000 1000 1000 1000 1000 1000 1000 1000 1000 1000 1000 1000 1000 1000 1000 1000 1000 1000 1000 1000 1000 1000 1000 1000 1000 1000 1000 1000 1000 1000 1000.01 1000.01 1000.01 1000.01 1000.01 1000.01 1000 1000 1000 1000 1000 1000 1000 1000 1000 1000 1000 1000 1000 1000 1000 1000 1000 1000 1000 1000 1000 1000 1000 1000 1000 1000 1000 1000 1000 1000 1000 1000 1000 1000 1000 1000.01 1000.01 1000.01 1000.01 1000.01 1000.01 1000 1000 1000 1000 1000 1000 1000 1000 1000 1000 1000 1000 1000 1000 1000 1000 1000 1000 1000 1000 1000 1000 1000 1000 1000 1000 1000 1000 1000 1000 1000 1000 1000 1000 1000 1000.01 1000.01 1000.01 1000.01 1000.01 1000.01 1000 1000 1000 1000 1000 1000 1000 1000 1000 1000 1000 1000 1000 1000 1000 1000 1000 1000 1000 1000 1000 1000 1000 1000 1000 1000 1000 1000 1000 1000 1000 1000 1000 1000 1000 1000.01 1000.01 1000.01 1000.01 1000.01 1000.01 1000 1000 1000 1000 1000 1000 1000 1000 1000 1000 1000 1000 1000 1000 1000 1000 1000 1000 1000 1000 1000 1000 1000 1000 1000 1000 1000 1000 1000 1000 1000 1000 1000 1000 1000 1000.01 1000.01 1000.01 1000.01 1000.01 1000.01 1000 1000 1000 1000 1000 1000 1000 1000 1000 1000 1000 1000 1000 1000 1000 1000 1000 1000 1000 1000 1000 1000 1000 1000 1000 1000 1000 1000 1000 1000 1000 1000 1000 1000 1000 1000.01 1000.01 1000.01 1000.01 1000.01 1000.01 1000 1000 1000 1000 1000 1000 1000 1000 1000 1000 1000 1000 1000 1000 1000 1000 1000 1000 1000 1000 1000 1000 1000 1000 1000 1000 1000 1000 1000 1000 1000 1000 1000 1000 1000 1000.01 1000.01 1000.01 1000.01 1000.01 1000.01 1000 1000 1000 1000 1000 1000 1000 1000 1000 1000 1000 1000 1000 1000 1000 1000 1000 1000 1000 1000 1000 1000 1000 1000 1000 1000 1000 1000 1000 1000 1000 1000 1000 1000 1000 1000.01 1000.01 1000.01 1000.01 1000.01 1000.01 1000 1000 1000 1000 1000 1000 1000 1000 1000 1000 1000 1000 1000 1000 1000 1000 1000 1000 1000 1000 1000 1000 1000 1000 1000 1000 1000 1000 1000 1000 1000 1000 1000 1000 1000 1000.01 1000.01 1000.01 1000.01 1000.01 1000.01 1000 1000 1000 1000 1000 1000 1000 1000 1000 1000 1000 1000 1000 1000 1000 1000 1000 1000 1000 1000 1000 1000 1000 1000 1000 1000 1000 1000 1000 1000 1000 1000 1000 1000 1000 1000.01 1000.01 1000.01 1000.01 1000.01 1000.01 1000 1000 1000 1000 1000 1000 1000 1000 1000 1000 1000 1000 1000 1000 1000 1000 1000 1000 1000 1000 1000 1000 1000 1000 1000 1000 1000 1000 1000 1000 1000 1000 1000 1000 1000 1000.01 1000.01 1000.01 1000.01 1000.01 1000.01 1000 1000 1000 1000 1000 1000 1000 1000 1000 1000 1000 1000 1000 1000 1000 1000 1000 1000 1000 1000 1000 1000 1000 1000 1000 1000 1000 1000 1000 1000 1000 1000 1000 1000 1000 1000.01 1000.01 1000.01 1000.01 1000.01 1000.01 1000 1000 1000 1000 1000 1000 1000 1000 1000 1000 1000 1000 1000 1000 1000 1000 1000 1000 1000 1000 1000 1000 1000 1000 1000 1000 1000 1000 1000 1000 1000 1000 1000 1000 1000 1000.01 1000.01 1000.01 1000.01 1000.01 1000.01 1000 1000 1000 1000 1000 1000 1000 1000 1000 1000 1000 1000 1000 1000 1000 1000 1000 1000 1000 1000 1000 1000 1000 1000 1000 1000 1000 1000 1000 1000 1000 1000 1000 1000 1000 1000.01 1000.01 1000.01 1000.01 1000.01 1000.01 1000 1000 1000 1000 1000 1000 1000 1000 1000 1000 1000 1000 1000 1000 1000 1000 1000 1000 1000 1000 1000 1000 1000 1000 1000 1000 1000 1000 1000 1000 1000 1000 1000 1000 1000 1000.01 1000.01 1000.01 1000.01 1000.01 1000.01 1000 1000 1000 1000 1000 1000 1000 1000 1000 1000 1000 1000 1000 1000 1000 1000 1000 1000 1000 1000 1000 1000 1000 1000 1000 1000 1000 1000 1000 1000 1000 1000 1000 1000 1000 1000.01 1000.01 1000.01 1000.01 1000.01 1000.01 1000.01 1000 1000 1000 1000 1000 1000 1000 1000 1000 1000.01 1000 1000 1000 1000 1000 1000 1000 1000 1000 1000 1000 1000 1000 1000 1000 1000 1000 1000 1000 1000 1000 1000 1000 1000 1000.01 1000.01 1000.01 1000.03 1000.02 1000.03 1000.01 1000.01 1000.01 1000.01 1000.01 1000.01 1000.01 1000.01 1000.01 1000.01 1000.01 1000.01 1000.01 1000.01 1000.01 1000.01 1000.01 1000.01 1000.01 1000.01 1000.01 1000.01 1000.01 1000.01 1000.01 1000.01 1000.01 1000.01 1000.01 1000.01 1000.01 1000.01 1000.01 1000.01 1000.01 1000.03 1000.02 1000.03 1000.02 1000.02 1000.02 1000.01 1000.01 1000.01 1000.01 1000.01 1000.01 1000.01 1000.01 1000.01 1000.01 1000.01 1000.01 1000.01 1000.01 1000.01 1000.01 1000.01 1000.01 1000.01 1000.01 1000.01 1000.01 1000.01 1000.01 1000.01 1000.01 1000.01 1000.01 1000.01 1000.01 1000.01 1000.01 1000.01 1000.01 1000.01 1000.02 1000.02 1000.02 1000.02 1000.02 1000.03 1000.02 1000.01 1000.01 1000.01 1000.01 1000.01 1000.01 1000.01 1000.01 1000.01 1000.01 1000.01 1000.01 1000.01 1000.01 1000.01 1000.01 1000.01 1000.01 1000.01 1000.01 1000.01 1000.01 1000.01 1000.01 1000.01 1000.01 1000.01 1000.01 1000.01 1000.01 1000.01 1000.01 1000.01 1000.01 1000.03 1000.02 1000.02 1000 1000 1000 1000 1000 1000 1000 1000 1000 1000 1000 1000 1000 1000 1000 1000 1000 1000 1000 1000 1000 1000 1000 1000 1000 1000 1000 1000 1000 1000 1000 1000 1000 1000 1000 1000 1000 1000 1000 1000 1000 1000 1000 1000 1000 1000 1000 1000 1000 1000 1000 1000 1000 1000 1000 1000 1000 1000 1000 1000 1000 1000 1000 1000 1000 1000 1000 1000 1000 1000 1000 1000 1000 1000 1000 1000 1000 1000 1000 1000 1000 1000 1000 1000 1000 1000 1000 1000 1000 1000 1000 1000 1000 1000 1000 1000 1000 1000 1000 1000 1000 1000 1000 1000 1000 1000 1000 1000 1000 1000 1000 1000 1000 1000 1000 1000 1000 1000 1000 1000 1000 1000 1000 1000 1000 1000 1000 1000 1000 1000 1000 1000 1000 1000 1000 1000 1000 1000 1000 1000 1000 1000 1000 1000 1000 1000 1000 1000 1000 1000 1000 1000 1000 1000 1000 1000 1000 1000 1000 1000 1000 1000 1000 1000 1000 1000 1000 1000 1000 1000 1000 1000 1000 1000 1000 1000 1000 1000 1000 1000 1000 1000 1000 1000 1000 1000 1000 1000 1000 1000 1000 1000 1000 1000 1000 1000 1000 1000 1000 1000 1000 1000 1000 1000 1000 1000 1000 1000 1000 1000 1000 1000 1000 1000 1000 1000 1000 1000 1000 1000 1000 1000 1000 1000 1000 1000 1000 1000 1000 1000 1000 1000 1000 1000 1000 1000 1000 1000 1000 1000 1000 1000 1000 1000 1000 1000 1000 1000 1000 1000 1000 1000 1000 1000 1000 1000 1000 1000 1000 1000 1000 1000 1000 1000 1000 1000 1000 1000 1000 1000 1000 1000 1000 1000 1000 1000 1000 1000 1000 1000 1000 1000 1000 1000 1000 1000 1000 1000 1000 1000 1000 1000 1000 1000 1000 1000 1000 1000 1000 1000 1000 1000 1000 1000 1000 1000 1000 1000 1000 1000 1000 1000 1000 1000 1000 1000 1000 1000 1000 1000 1000 1000 1000 1000 1000 1000 1000 1000 
</DataArray>
<DataArray type="Float32" Name="Velocity" NumberOfComponents="3" format="ascii">
0.004258818 0.0061656246 0
0.00072798796 0.0058783968 0
-6.3647443e-05 0.0057715019 0
5.1873914e-05 0.0049451329 0
4.6387299e-06 0.0041780798 0
-1.2650188e-08 0.0029520253 0
6.1632096e-07 0.0041904491 0
1.1369929e-06 0.0041904454 0
-2.5236682e-07 0.0029567545 0
3.9824067e-07 0.0029551953 0
-1.0690383e-06 0.0041904449 0
4.4665617e-07 0.0041904468 0
1.5684491e-07 0.0041904435 0
2.8326011e-10 0.0051109432 0
4.1598742e-07 0.0041904459 0
-3.2109156e-07 0.0041904468 0
-4.4806722e-08 0.0041904468 0
1.3265541e-06 0.0041904468 0
-1.4986872e-08 0.0041904398 0
-1.1256402e-09 0.0029520262 0
1.2307315e-07 0.0041904459 0
5.7353566e-07 0.0041904487 0
2.8540549e-07 0.002946978 0
-2.8546751e-07 0.002946978 0
-6.5990241e-07 0.0041904454 0
3.4741419e-07 0.0041904459 0
0 0.0029520262 0
-3.4741419e-07 0.0041904459 0
6.5990241e-07 0.0041904454 0
2.8546751e-07 0.002946978 0
-2.8546751e-07 0.002946978 0
-6.5988024e-07 0.0041904454 0
6.5988024e-07 0.0041904454 0
2.8564708e-07 0.002946978 0
-2.7814724e-07 0.0029469775 0
-2.5427273e-06 0.0041904431 0
-8.4319538e-07 0.0041904734 0
-4.8205806e-05 0.0029855696 0
-0.00075841398 0.004121955 0
-0.00062621041 0.0039272616 0
-0.0045163888 0.0044311616 0
0.0040027206 0.001152016 0
0.0010397789 0.0012565919 0
0.00037576145 0.0011004686 0
5.9804643e-05 0.0011940063 0
2.4652378e-05 0.0012098012 0
-9.6364934e-09 0.00089948939 0
-1.2720852e-07 0.0012111773 0
1.0308703e-07 0.001211177 0
-6.903835e-07 0.0010958756 0
2.762805e-07 0.0010958614 0
-2.1063914e-07 0.0012111765 0
-3.9375877e-07 0.0012111763 0
1.5649393e-07 0.0012111752 0
3.7654804e-09 0.0014623333 0
-4.8349506e-07 0.0012111753 0
6.3970745e-08 0.0012111763 0
-2.5445829e-07 0.0012111763 0
4.5254205e-07 0.0012111777 0
1.931092e-07 0.0012111765 0
-7.6525541e-10 0.0008994923 0
-4.4890336e-07 0.0012111762 0
4.3759593e-07 0.0012111762 0
-8.7934836e-07 0.0010958738 0
8.7931579e-07 0.0010958738 0
-4.4396103e-07 0.0012111762 0
4.4396103e-07 0.0012111762 0
6.1845636e-15 0.0008994923 0
-4.4396103e-07 0.0012111762 0
4.4396103e-07 0.0012111762 0
-8.7931579e-07 0.0010958738 0
8.7931579e-07 0.0010958738 0
-4.4396103e-07 0.0012111762 0
4.4396103e-07 0.0012111762 0
-8.7921921e-07 0.0010958738 0
8.8418972e-07 0.0010958737 0
-4.2365772e-07 0.0012111767 0
4.6460752e-07 0.0012111772 0
-8.5433167e-05 0.0011030337 0
-0.00054897543 0.00082349451 0
-0.00089968822 0.00089537335 0
-0.003900589 0.00058503728 0
0.0038095959 0.00030886053 0
0.00098406209 0.00035843166 0
0.00059635204 0.00017449056 0
8.3798215e-05 0.00012251934 0
1.3060755e-05 0.00013566142 0
3.8419375e-06 5.8247388e-05 0
1.9077113e-06 0.00013497882 0
1.890382e-06 0.00013493712 0
1.211483e-06 6.0469672e-05 0
3.5749092e-06 6.0564395e-05 0
-2.4789674e-07 0.00013485682 0
-5.1036159e-07 0.00013485616 0
-9.6229462e-07 0.00013484049 0
1.041752e-07 0.00013670529 0
-5.5292338e-07 0.0001348512 0
9.4137754e-08 0.00013485616 0
-2.1895747e-07 0.00013485616 0
4.2406128e-07 0.00013485619 0
1.6728505e-07 0.00013485854 0
3.3185032e-07 5.8523296e-05 0
7.6694171e-08 0.00013485592 0
-8.0052541e-07 0.00013487958 0
-9.2183581e-07 6.0517694e-05 0
2.1102687e-06 6.0540711e-05 0
7.2155075e-08 0.00013485651 0
-2.5916503e-07 0.00013485679 0
-1.9718671e-15 5.8522161e-05 0
2.5916503e-07 0.00013485679 0
-7.2155075e-08 0.00013485651 0
-2.1102687e-06 6.0540711e-05 0
2.1102687e-06 6.0540711e-05 0
7.2155075e-08 0.00013485651 0
-7.2155075e-08 0.00013485651 0
-4.1975418e-06 6.0540715e-05 0
-1.5686297e-06 6.0459359e-05 0
-3.6069505e-06 0.00013493819 0
-5.4222078e-06 0.00013504388 0
-0.00013948974 5.3731907e-05 0
-0.00043972748 0.00039079704 0
-0.00078027201 0.00052383967 0
-0.0039927107 0.00054602668 0
0.0042745681 0.0003112542 0
0.0010008352 0.00025484586 0
0.00040147029 0.00010049174 0
7.1795133e-05 6.2140345e-05 0
3.8449048e-06 2.9775843e-05 0
1.2521166e-07 2.3881119e-06 0
2.667681e-07 3.0637941e-05 0
1.8130935e-07 3.0637104e-05 0
7.6456914e-08 2.3928351e-06 0
-5.0436444e-07 2.3922246e-06 0
-1.7963794e-07 3.0637751e-05 0
-9.7675269e-08 3.0636973e-05 0
6.378508e-07 3.0636827e-05 0
2.8616387e-10 0.00010285668 0
-7.2702187e-07 3.0636835e-05 0
-3.628893e-07 3.0636977e-05 0
2.9131382e-07 3.0636973e-05 0
4.2849638e-07 3.0636973e-05 0
4.8802718e-08 3.0637679e-05 0
-8.2026304e-08 2.3885229e-06 0
2.0192205e-07 3.0637835e-05 0
-2.7377707e-08 3.0637504e-05 0
3.687002e-07 2.3924472e-06 0
-3.6870372e-07 2.3924513e-06 0
2.6415263e-08 3.0637486e-05 0
-2.0318885e-07 3.0637832e-05 0
3.71081e-16 2.3883999e-06 0
2.0318885e-07 3.0637832e-05 0
-2.6415263e-08 3.0637486e-05 0
3.6870372e-07 2.3924513e-06 0
-3.6870372e-07 2.3924513e-06 0
2.6415263e-08 3.0637486e-05 0
-2.6415263e-08 3.0637486e-05 0
3.6870156e-07 2.3924513e-06 0
-5.4498508e-07 2.3920395e-06 0
-5.248092e-07 3.0637893e-05 0
-6.9260329e-07 3.0639618e-05 0
-4.6532048e-05 1.4984122e-05 0
-0.00012149036 0.00015726908 0
-0.0011937184 9.8613178e-05 0
-0.0042055487 0.00017242608 0
0.0042110132 0.00019572923 0
0.0011679456 0.00015932284 0
0.00014389913 0.00015933483 0
5.3757292e-05 1.2648641e-05 0
1.0807902e-06 6.9497457e-07 0
4.6099974e-10 7.1038384e-09 0
-4.7751207e-09 7.5803399e-07 0
4.7735247e-09 7.5803376e-07 0
-7.9528508e-15 7.1076571e-09 0
7.7053113e-15 7.1076358e-09 0
-4.7700492e-09 7.5803376e-07 0
4.7783804e-09 7.5803359e-07 0
-2.0136628e-08 7.5802865e-07 0
0 7.4615732e-06 0
2.0132893e-08 7.5802865e-07 0
-4.7786397e-09 7.5803359e-07 0
4.7724398e-09 7.5803359e-07 0
-4.7759192e-09 7.5803359e-07 0
4.77243e-09 7.5803376e-07 0
0 7.1042501e-09 0
-4.7720907e-09 7.5803376e-07 0
4.7720907e-09 7.5803376e-07 0
-3.5760545e-15 7.1075617e-09 0
3.5760571e-15 7.1075617e-09 0
-4.7720907e-09 7.5803376e-07 0
4.7720907e-09 7.5803376e-07 0
0 7.1042185e-09 0
-4.7720907e-09 7.5803376e-07 0
4.7720907e-09 7.5803376e-07 0
-3.5760571e-15 7.1075617e-09 0
3.5760571e-15 7.1075617e-09 0
-4.7720907e-09 7.5803376e-07 0
4.7720907e-09 7.5803376e-07 0
-3.5760571e-15 7.1075617e-09 0
3.5757636e-15 7.1074853e-09 0
-5.1084479e-09 7.5803382e-07 0
-6.8555948e-07 7.5803439e-07 0
-2.9724695e-05 9.4796849e-07 0
-0.00013545151 1.453651e-05 0
-0.0012098316 3.7275709e-05 0
-0.0041779168 4.2722026e-05 0
0.0029668931 2.388857e-06 0
0.0011039503 1.3538203e-06 0
6.0392875e-05 1.0078177e-05 0
2.3901434e-06 4.2090605e-07 0
7.1069932e-09 3.5100503e-10 0
0 0 0
-4.7746509e-09 3.9962084e-10 0
4.7746509e-09 3.9962067e-10 0
0 0 0
0 0 0
-4.7746509e-09 3.9962067e-10 0
4.7746509e-09 3.9962064e-10 0
-4.7746509e-09 3.9962009e-10 0
0 2.1336703e-08 0
4.7746509e-09 3.9962009e-10 0
-4.7746509e-09 3.9962064e-10 0
4.7746509e-09 3.9962064e-10 0
-4.7746509e-09 3.9962064e-10 0
4.7746509e-09 3.9962067e-10 0
0 0 0
-4.7746562e-09 3.9962067e-10 0
4.7746562e-09 3.9962064e-10 0
0 0 0
0 0 0
-4.7746562e-09 3.9962064e-10 0
4.7746562e-09 3.9962064e-10 0
0 0 0
-4.7746562e-09 3.9962064e-10 0
4.7746562e-09 3.9962064e-10 0
0 0 0
0 0 0
-4.7746562e-09 3.9962064e-10 0
4.7746562e-09 3.9962064e-10 0
0 0 0
0 0 0
-4.7746562e-09 3.9962067e-10 0
2.5585101e-09 3.9961562e-10 0
-2.3958146e-06 2.2742515e-07 0
-6.0231243e-05 4.8763527e-06 0
-0.0010958643 4.1442843e-07 0
-0.0029552341 -1.6771725e-07 0
0.0041904487 6.1318531e-07 0
0.0012111773 -1.2800383e-07 0
0.00013499806 2.0517598e-06 0
3.0638079e-05 2.4108095e-07 0
7.5803399e-07 -4.7755728e-09 0
3.9962084e-10 -4.7746509e-09 0
-4.7746509e-09 -4.7746509e-09 0
4.7746509e-09 -4.7746509e-09 0
0 -4.7746509e-09 0
0 -4.7746509e-09 0
-4.7746509e-09 -4.7746509e-09 0
4.7746509e-09 -4.7746509e-09 0
-4.7746509e-09 -4.7746509e-09 0
0 -4.7746509e-09 0
4.7746509e-09 -4.7746509e-09 0
-4.7746509e-09 -4.7746509e-09 0
4.7746509e-09 -4.7746509e-09 0
-4.7746509e-09 -4.7746509e-09 0
4.7746509e-09 -4.7746509e-09 0
0 -4.7746509e-09 0
-4.7746562e-09 -4.7746509e-09 0
4.7746562e-09 -4.7746509e-09 0
0 -4.7746509e-09 0
0 -4.7746509e-09 0
-4.7746562e-09 -4.7746509e-09 0
4.7746562e-09 -4.7746509e-09 0
0 -4.7746509e-09 0
-4.7746562e-09 -4.7746509e-09 0
4.7746562e-09 -4.7746509e-09 0
0 -4.7746509e-09 0
0 -4.7746509e-09 0
-4.7746562e-09 -4.7746509e-09 0
4.7746562e-09 -4.7746509e-09 0
0 -4.7746509e-09 0
0 -4.7746509e-09 0
-5.1598801e-09 -4.7746509e-09 0
-7.4845934e-07 -4.7750119e-09 0
-3.0642546e-05 1.9500047e-07 0
-0.00013499463 2.0257119e-06 0
-0.0012111496 -1.2739152e-07 0
-0.0041904426 6.1824994e-07 0
0.0041904454 1.1333193e-06 0
0.001211177 1.0232074e-07 0
0.00013494611 2.6225657e-06 0
3.0637111e-05 2.8879305e-07 0
7.5803376e-07 4.7732662e-09 0
3.9962067e-10 4.7746509e-09 0
-4.7746509e-09 4.7746509e-09 0
4.7746509e-09 4.7746509e-09 0
0 4.7746509e-09 0
0 4.7746509e-09 0
-4.7746509e-09 4.7746509e-09 0
4.7746509e-09 4.7746509e-09 0
-4.7746509e-09 4.7746509e-09 0
0 4.7746509e-09 0
4.7746509e-09 4.7746509e-09 0
-4.7746509e-09 4.7746509e-09 0
4.7746509e-09 4.7746509e-09 0
-4.7746509e-09 4.7746509e-09 0
4.7746509e-09 4.7746509e-09 0
0 4.7746509e-09 0
-4.7746562e-09 4.7746509e-09 0
4.7746562e-09 4.7746509e-09 0
0 4.7746509e-09 0
0 4.7746509e-09 0
-4.7746562e-09 4.7746509e-09 0
4.7746562e-09 4.7746509e-09 0
0 4.7746509e-09 0
-4.7746562e-09 4.7746509e-09 0
4.7746562e-09 4.7746509e-09 0
0 4.7746509e-09 0
0 4.7746509e-09 0
-4.7746562e-09 4.7746509e-09 0
4.7746562e-09 4.7746509e-09 0
0 4.7746509e-09 0
0 4.7746509e-09 0
-5.1598801e-09 4.7746509e-09 0
-7.4845917e-07 4.7737196e-09 0
-3.0642008e-05 9.4199194e-08 0
-0.00013494288 2.5044619e-06 0
-0.0012111493 1.0293034e-07 0
-0.0041904394 1.1404743e-06 0
0.0029567545 -2.5291664e-07 0
0.0010958756 -6.9071797e-07 0
6.0460643e-05 1.3710562e-06 0
2.392828e-06 7.6424918e-08 0
7.1076522e-09 -7.9528254e-15 0
0 0 0
-4.7746509e-09 0 0
4.7746509e-09 0 0
0 0 0
0 0 0
-4.7746509e-09 0 0
4.7746509e-09 0 0
-4.7746509e-09 0 0
0 0 0
4.7746509e-09 0 0
-4.7746509e-09 0 0
4.7746509e-09 0 0
-4.7746509e-09 0 0
4.7746509e-09 0 0
0 0 0
-4.7746562e-09 0 0
4.7746562e-09 0 0
0 0 0
0 0 0
-4.7746562e-09 0 0
4.7746562e-09 0 0
0 0 0
-4.7746562e-09 0 0
4.7746562e-09 0 0
0 0 0
0 0 0
-4.7746562e-09 0 0
4.7746562e-09 0 0
0 0 0
0 0 0
-4.7746562e-09 0 0
2.5578171e-09 -8.0145351e-15 0
-2.3974121e-06 7.6444636e-08 0
-6.0464648e-05 1.3780734e-06 0
-0.0010958604 -6.9114827e-07 0
-0.0029568011 -2.5188359e-07 0
0.0029551953 3.9823942e-07 0
0.0010958614 2.7627988e-07 0
6.0564402e-05 4.0001473e-06 0