<?xml version="1.0" ?>

<VTKFile type="UnstructuredGrid" version="0.1" byte_order="BigEndian">

<UnstructuredGrid>

<Piece NumberOfPoints= " 2009 " NumberOfCells=" 2009 ">

<PointData Scalars="Pressure" Vectors="Velocity">

<DataArray type="Float32" Name="Pressure" format="ascii">

7.72496 13.3043 12.1241 9.87085 10.0854 10.4073 8.04684 6.54473 6.75932 6.75932 6.54473 6.54473 6.54473 7.40308 6.54473 6.54473 6.54473 6.54473 6.54473 6.65203 6.54473 6.54473 6.75932 6.75932 6.54473 6.54473 6.65203 6.54473 6.54473 6.75932 6.75932 6.54473 6.54473 6.75932 10.0854 8.9052 10.0854 9.01249 11.0511 8.58331 10.5146 17.1671 19.4205 15.7722 10.3 8.47602 10.5146 12.2314 9.22708 9.22708 9.22708 9.22708 9.11979 9.11979 7.93955 9.11979 9.11979 9.11979 9.11979 9.22708 4.07701 9.22708 9.22708 9.33438 9.33438 9.22708 9.22708 4.07701 9.22708 9.22708 9.33438 9.33438 9.22708 9.22708 9.33438 10.1927 14.8065 7.72496 10.8365 14.1627 14.6992 5.5791 14.8065 14.1627 14.8065 9.76356 6.11556 12.3387 4.82805 3.11139 8.15414 8.36873 3.0041 3.0041 3.0041 0 3.0041 3.0041 3.0041 3.0041 3.0041 4.50618 3.0041 3.0041 8.26143 8.26143 3.0041 3.0041 4.50618 3.0041 3.0041 8.36873 8.26143 3.11139 3.11139 8.36873 9.22708 10.1927 4.07701 6.86661 16.5233 12.7679 16.3087 12.7679 13.9481 12.446 5.04264 2.03849 11.8022 8.7979 4.1843 3.64785 3.64785 4.1843 4.1843 4.07701 8.36873 4.07701 4.07701 4.07701 4.07701 4.1843 2.14578 4.1843 4.1843 3.64785 3.64785 4.1843 4.1843 2.14578 4.1843 4.1843 3.64785 3.64785 4.1843 4.1843 3.64785 7.83225 10.5146 4.1843 5.04264 7.40308 9.76356 13.0898 8.47602 9.76356 8.04684 1.07289 0.965598 8.47602 4.2916 0 5.47181 5.36451 0 0 0 0.107288 0 0 0 0 0 5.25722 0 0 5.36451 5.36451 0 0 5.25722 0 0 5.36451 5.36451 0 0 5.36451 8.26143 5.25722 0.536443 8.26143 4.72076 9.65626 8.36873 10.8365 6.33015 5.90098 2.03849 8.69061 0.75102 4.82805 3.64785 0 0 3.64785 3.64785 3.64785 0.214577 3.64785 3.64785 3.64785 3.64785 3.64785 0 3.64785 3.64785 0 0 3.64785 3.64785 0 3.64785 3.64785 0 0 3.64785 3.64785 0 0.643732 3.96972 9.97815 6.65203 12.3387 12.8752 10.0854 8.58331 10.1927 5.04264 8.15414 4.39889 4.39889 6.75932 3.54056 0 0 3.54056 3.54056 3.54056 0.858309 3.54056 3.54056 3.54056 3.54056 3.54056 0 3.54056 3.54056 0 0 3.54056 3.54056 0 3.54056 3.54056 0 0 3.54056 3.54056 0 10.0854 6.86661 3.32598 6.43744 5.47181 11.8022 12.0168 6.65203 9.44167 6.33015 7.83225 0.107288 3.96972 3.43327 0 0 0 0 0 0 6.65203 0 0 0 0 0 0 0 0 0 0 0 0 0 0 0 0 0 0 0 0 3.54056 3.64785 0 4.1843 3.11139 9.22708 6.54473 6.75932 15.7722 15.343 3.64785 5.47181 1.18018 3.75514 0 0 0 0 0 0 0 0 0 0 0 0 0 0 0 0 0 0 0 0 0 0 0 0 0 0 0 0 0 5.47181 3.64785 8.15414 9.22708 6.75932 6.75932 9.22708 8.36873 3.64785 5.47181 0.429154 1.9312 0 0 0 0 0 0 0 0 0 0 0 0 0 0 0 0 0 0 0 0 0 0 0 0 0 0 0 0 0 5.36451 3.64785 8.36873 9.22708 6.75932 6.54473 9.22708 3.0041 4.1843 0 3.64785 3.54056 0 0 0 0 0 0 0 0 0 0 0 0 0 0 0 0 0 0 0 0 0 0 0 0 0 0 0 3.54056 3.64785 0 4.1843 3.0041 9.22708 6.54473 6.54473 9.11979 3.0041 4.1843 0 3.64785 3.54056 0 0 0 0 0 0 0 0 0 0 0 0 0 0 0 0 0 0 0 0 0 0 0 0 0 0 0 3.54056 3.64785 0 4.1843 3.0041 9.11979 6.54473 6.54473 9.11979 3.0041 4.07701 0 3.64785 3.54056 0 0 0 0 0 0 0 0 0 0 0 0 0 0 0 0 0 0 0 0 0 0 0 0 0 0 0 3.54056 3.64785 0 4.07701 3.0041 9.11979 6.54473 7.40308 7.93955 0 8.36873 0.107288 0.214577 0.858309 6.65203 0 0 0 0 0 0 0 0 0 0 0 0 0 0 0 0 0 0 0 0 0 0 0 0 0 6.65203 0.858309 0.214577 0.107288 8.36873 0 7.93955 7.40308 6.54473 9.11979 3.0041 4.07701 0 3.64785 3.54056 0 0 0 0 0 0 0 0 0 0 0 0 0 0 0 0 0 0 0 0 0 0 0 0 0 0 0 3.54056 3.64785 0 4.07701 3.0041 9.11979 6.54473 6.54473 9.11979 3.0041 4.07701 0 3.64785 3.54056 0 0 0 0 0 0 0 0 0 0 0 0 0 0 0 0 0 0 0 0 0 0 0 0 0 0 0 3.54056 3.64785 0 4.07701 3.0041 9.11979 6.54473 6.54473 9.11979 3.0041 4.07701 0 3.64785 3.54056 0 0 0 0 0 0 0 0 0 0 0 0 0 0 0 0 0 0 0 0 0 0 0 0 0 0 0 3.54056 3.64785 0 4.07701 3.0041 9.11979 6.54473 6.54473 9.11979 3.0041 4.07701 0 3.64785 3.54056 0 0 0 0 0 0 0 0 0 0 0 0 0 0 0 0 0 0 0 0 0 0 0 0 0 0 0 3.54056 3.64785 0 4.07701 3.0041 9.11979 6.54473 6.54473 9.22708 3.0041 4.1843 0 3.64785 3.54056 0 0 0 0 0 0 0 0 0 0 0 0 0 0 0 0 0 0 0 0 0 0 0 0 0 0 0 3.54056 3.64785 0 4.1843 3.0041 9.22708 6.54473 6.65203 4.07701 4.50618 2.14578 5.25722 0 0 0 0 0 0 0 0 0 0 0 0 0 0 0 0 0 0 0 0 0 0 0 0 0 0 0 0 0 0 0 5.25722 2.14578 4.50618 4.07701 6.65203 6.54473 9.22708 3.0041 4.1843 0 3.64785 3.54056 0 0 0 0 0 0 0 0 0 0 0 0 0 0 0 0 0 0 0 0 0 0 0 0 0 0 0 3.54056 3.64785 0 4.1843 3.0041 9.22708 6.54473 6.54473 9.22708 3.0041 4.1843 0 3.64785 3.54056 0 0 0 0 0 0 0 0 0 0 0 0 0 0 0 0 0 0 0 0 0 0 0 0 0 0 0 3.54056 3.64785 0 4.1843 3.0041 9.22708 6.54473 6.75932 9.33438 8.26143 3.64785 5.36451 0 0 0 0 0 0 0 0 0 0 0 0 0 0 0 0 0 0 0 0 0 0 0 0 0 0 0 0 0 0 0 5.36451 3.64785 8.26143 9.33438 6.75932 6.75932 9.33438 8.26143 3.64785 5.36451 0 0 0 0 0 0 0 0 0 0 0 0 0 0 0 0 0 0 0 0 0 0 0 0 0 0 0 0 0 0 0 5.36451 3.64785 8.26143 9.33438 6.75932 6.54473 9.22708 3.0041 4.1843 0 3.64785 3.54056 0 0 0 0 0 0 0 0 0 0 0 0 0 0 0 0 0 0 0 0 0 0 0 0 0 0 0 3.54056 3.64785 0 4.1843 3.0041 9.22708 6.54473 6.54473 9.22708 3.0041 4.1843 0 3.64785 3.54056 0 0 0 0 0 0 0 0 0 0 0 0 0 0 0 0 0 0 0 0 0 0 0 0 0 0 0 3.54056 3.64785 0 4.1843 3.0041 9.22708 6.54473 6.65203 4.07701 4.50618 2.14578 5.25722 0 0 0 0 0 0 0 0 0 0 0 0 0 0 0 0 0 0 0 0 0 0 0 0 0 0 0 0 0 0 0 5.25722 2.14578 4.50618 4.07701 6.65203 6.54473 9.22708 3.0041 4.1843 0 3.64785 3.54056 0 0 0 0 0 0 0 0 0 0 0 0 0 0 0 0 0 0 0 0 0 0 0 0 0 0 0 3.54056 3.64785 0 4.1843 3.0041 9.22708 6.54473 6.54473 9.22708 3.0041 4.1843 0 3.64785 3.54056 0 0 0 0 0 0 0 0 0 0 0 0 0 0 0 0 0 0 0 0 0 0 0 0 0 0 0 3.54056 3.64785 0 4.1843 3.0041 9.22708 6.54473 6.75932 9.33438 8.36873 3.64785 5.36451 0 0 0 0 0 0 0 0 0 0 0 0 0 0 0 0 0 0 0 0 0 0 0 0 0 0 0 0 0 0 0 5.36451 3.64785 8.36873 9.33438 6.75932 6.75932 9.33438 8.26143 3.64785 5.36451 0 0 0 0 0 0 0 0 0 0 0 0 0 0 0 0 0 0 0 0 0 0 0 0 0 0 0 0 0 0 0 5.36451 3.64785 8.26143 9.33438 6.75932 6.54473 9.22708 3.11139 4.1843 0 3.64785 3.54056 0 0 0 0 0 0 0 0 0 0 0 0 0 0 0 0 0 0 0 0 0 0 0 0 0 0 0 3.54056 3.64785 0 4.1843 3.11139 9.22708 6.54473 6.54473 9.22708 3.11139 4.1843 0 3.64785 3.54056 0 0 0 0 0 0 0 0 0 0 0 0 0 0 0 0 0 0 0 0 0 0 0 0 0 0 0 3.54056 3.64785 0 4.1843 3.11139 9.22708 6.54473 6.75932 9.33438 8.36873 3.64785 5.36451 0 0 0 0 0 0 0 0 6.65203 0 0 0 0 0 0 0 0 0 0 0 0 0 0 0 0 0 0 0 0 0 0 5.36451 3.64785 8.26143 9.33438 6.75932 10.0854 10.1927 9.22708 7.83225 8.26143 0.643732 10.0854 3.54056 0 0 3.54056 3.54056 3.54056 0.858309 3.54056 3.54056 3.54056 3.54056 3.54056 0 3.54056 3.54056 0 0 3.54056 3.54056 0 3.54056 3.54056 0 0 3.54056 3.54056 0 6.65203 3.96972 8.04684 6.54473 9.33438 10.3 9.65626 8.9052 14.8065 10.1927 10.5146 5.25722 3.96972 6.86661 3.64785 0 0 3.64785 3.64785 3.64785 0.214577 3.64785 3.64785 3.64785 3.64785 3.64785 0 3.64785 3.64785 0 0 3.64785 3.64785 0 3.64785 3.64785 0 0 3.64785 3.64785 0 3.96972 7.51037 5.36451 6.65203 9.22708 11.373 9.54897 10.0854 7.72496 4.07701 4.1843 0.536443 9.97815 3.32598 0 5.47181 5.36451 0 0 0 0.107288 0 0 0 0 0 5.25722 0 0 5.36451 5.36451 0 0 5.25722 0 0 5.36451 5.36451 0 0 5.36451 8.04684 5.36451 0.643732 8.36873 5.25722 10.5146 8.7979 9.01249 10.8365 6.86661 5.04264 8.26143 6.65203 6.43744 4.1843 3.64785 3.64785 4.1843 4.1843 4.07701 8.36873 4.07701 4.07701 4.07701 4.07701 4.1843 2.14578 4.1843 4.1843 3.64785 3.64785 4.1843 4.1843 2.14578 4.1843 4.1843 3.64785 3.64785 4.1843 4.1843 3.64785 6.54473 6.65203 8.36873 5.47181 7.40308 11.2657 9.76356 11.0511 14.1627 16.5233 7.40308 4.72076 12.3387 5.47181 3.11139 8.15414 8.36873 3.0041 3.0041 3.0041 0 3.0041 3.0041 3.0041 3.0041 3.0041 4.50618 3.0041 3.0041 8.26143 8.26143 3.0041 3.0041 4.50618 3.0041 3.0041 8.36873 8.26143 3.11139 3.11139 8.26143 9.33438 9.22708 5.25722 7.40308 16.416 14.4846 10.4073 8.58331 14.6992 12.7679 9.76356 9.65626 12.8752 11.8022 9.22708 9.22708 9.22708 9.22708 9.11979 9.11979 7.93955 9.11979 9.11979 9.11979 9.11979 9.22708 4.07701 9.22708 9.22708 9.33438 9.33438 9.22708 9.22708 4.07701 9.22708 9.22708 9.33438 9.33438 9.22708 9.22708 9.33438 10.3 11.373 10.5146 11.2657 14.4846 15.2357 6.33015 10.5146 5.5791 16.3087 13.0898 8.36873 10.0854 12.0168 6.54473 6.75932 6.75932 6.54473 6.54473 6.54473 7.40308 6.54473 6.54473 6.54473 6.54473 6.54473 6.65203 6.54473 6.54473 6.75932 6.75932 6.54473 6.54473 6.65203 6.54473 6.54473 6.75932 6.75932 6.54473 6.54473 6.75932 9.65626 9.54897 8.7979 9.76356 10.4073 6.33015 7.93955 0.1 0.1 0.1 0.1 0.1 0.1 0.1 0.1 0.1 0.1 0.1 0.1 0.1 0.1 0.1 0.1 0.1 0.1 0.1 0.1 0.1 0.1 0.1 0.1 0.1 0.1 0.1 0.1 0.1 0.1 0.1 0.1 0.1 0.1 0.1 0.1 0.1 0.1 0.1 0.1 0.1 0.1 0.1 0.1 0.1 0.1 0.1 0.1 0.1 0.1 0.1 0.1 0.1 0.1 0.1 0.1 0.1 0.1 0.1 0.1 0.1 0.1 0.1 0.1 0.1 0.1 0.1 0.1 0.1 0.1 0.1 0.1 0.1 0.1 0.1 0.1 0.1 0.1 0.1 0.1 0.1 0.1 0.1 0.1 0.1 0.1 0.1 0.1 0.1 0.1 0.1 0.1 0.1 0.1 0.1 0.1 0.1 0.1 0.1 0.1 0.1 0.1 0.1 0.1 0.1 0.1 0.1 0.1 0.1 0.1 0.1 0.1 0.1 0.1 0.1 0.1 0.1 0.1 0.1 0.1 0.1 0.1 0.1 0.1 0.1 0.1 0.1 0.1 0.1 0.1 0.1 0.1 0.1 0.1 0.1 0.1 0.1 0.1 0.1 0.1 0.1 0.1 0.1 0.1 0.1 0.1 0.1 0.1 0.1 0.1 0.1 0.1 0.1 0.1 0.1 0.1 0.1 0.1 0.1 0.1 0.1 0.1 0.1 0.1 0.1 0.1 0.1 0.1 0.1 0.1 0.1 0.1 0.1 0.1 0.1 0.1 0.1 0.1 0.1 0.1 0.1 0.1 0.1 0.1 0.1 0.1 0.1 0.1 0.1 0.1 0.1 0.1 0.1 0.1 0.1 0.1 0.1 0.1 0.1 0.1 0.1 0.1 0.1 0.1 0.1 0.1 0.1 0.1 0.1 0.1 0.1 0.1 0.1 0.1 0.1 0.1 0.1 0.1 0.1 0.1 0.1 0.1 0.1 0.1 0.1 0.1 0.1 0.1 0.1 0.1 0.1 0.1 0.1 0.1 0.1 0.1 0.1 0.1 0.1 0.1 0.1 0.1 0.1 0.1 0.1 0.1 0.1 0.1 0.1 0.1 0.1 0.1 0.1 0.1 0.1 0.1 0.1 0.1 0.1 0.1 0.1 0.1 0.1 0.1 0.1 0.1 0.1 0.1 0.1 0.1 0.1 0.1 0.1 0.1 0.1 0.1 0.1 0.1 0.1 0.1 0.1 0.1 0.1 0.1 0.1 0.1 0.1 0.1 0.1 0.1 0.1 0.1 0.1 0.1 0.1 0.1 0.1 0.1 0.1 0.1 0.1 0.1 0.1 0.1 0.1 0.1 0.1 0.1 0.1 0.1 0.1 0.1 0.1 0.1 0.1 0.1 0.1 0.1 0.1 0.1 0.1 0.1 0.1 0.1 0.1 0.1 0.1 0.1 
</DataArray>

<DataArray type="Float32" Name="Density" format="ascii">
1000.01 1000.01 1000.01 1000.01 1000.01 1000.01 1000.01 1000.01 1000.01 1000.01 1000.01 1000.01 1000.01 1000.01 1000.01 1000.01 1000.01 1000.01 1000.01 1000.01 1000.01 1000.01 1000.01 1000.01 1000.01 1000.01 1000.01 1000.01 1000.01 1000.01 1000.01 1000.01 1000.01 1000.01 1000.01 1000.01 1000.01 1000.01 1000.01 1000.01 1000.01 1000.02 1000.02 1000.02 1000.01 1000.01 1000.01 1000.01 1000.01 1000.01 1000.01 1000.01 1000.01 1000.01 1000.01 1000.01 1000.01 1000.01 1000.01 1000.01 1000 1000.01 1000.01 1000.01 1000.01 1000.01 1000.01 1000 1000.01 1000.01 1000.01 1000.01 1000.01 1000.01 1000.01 1000.01 1000.02 1000.01 1000.01 1000.02 1000.02 1000.01 1000.02 1000.02 1000.02 1000.01 1000.01 1000.01 1000.01 1000 1000.01 1000.01 1000 1000 1000 1000 1000 1000 1000 1000 1000 1000.01 1000 1000 1000.01 1000.01 1000 1000 1000.01 1000 1000 1000.01 1000.01 1000 1000 1000.01 1000.01 1000.01 1000 1000.01 1000.02 1000.01 1000.02 1000.01 1000.02 1000.01 1000.01 1000 1000.01 1000.01 1000 1000 1000 1000 1000 1000 1000.01 1000 1000 1000 1000 1000 1000 1000 1000 1000 1000 1000 1000 1000 1000 1000 1000 1000 1000 1000 1000 1000.01 1000.01 1000 1000.01 1000.01 1000.01 1000.01 1000.01 1000.01 1000.01 1000 1000 1000.01 1000 1000 1000.01 1000.01 1000 1000 1000 1000 1000 1000 1000 1000 1000 1000.01 1000 1000 1000.01 1000.01 1000 1000 1000.01 1000 1000 1000.01 1000.01 1000 1000 1000.01 1000.01 1000.01 1000 1000.01 1000.01 1000.01 1000.01 1000.01 1000.01 1000.01 1000 1000.01 1000 1000.01 1000 1000 1000 1000 1000 1000 1000 1000 1000 1000 1000 1000 1000 1000 1000 1000 1000 1000 1000 1000 1000 1000 1000 1000 1000 1000 1000 1000 1000 1000.01 1000.01 1000.01 1000.01 1000.01 1000.01 1000.01 1000.01 1000.01 1000 1000 1000.01 1000 1000 1000 1000 1000 1000 1000 1000 1000 1000 1000 1000 1000 1000 1000 1000 1000 1000 1000 1000 1000 1000 1000 1000 1000 1000 1000 1000.01 1000.01 1000 1000.01 1000.01 1000.01 1000.01 1000.01 1000.01 1000.01 1000.01 1000 1000 1000 1000 1000 1000 1000 1000 1000 1000.01 1000 1000 1000 1000 1000 1000 1000 1000 1000 1000 1000 1000 1000 1000 1000 1000 1000 1000 1000 1000 1000 1000 1000 1000 1000 1000.01 1000.01 1000.01 1000.02 1000.02 1000 1000.01 1000 1000 1000 1000 1000 1000 1000 1000 1000 1000 1000 1000 1000 1000 1000 1000 1000 1000 1000 1000 1000 1000 1000 1000 1000 1000 1000 1000 1000 1000 1000 1000.01 1000 1000.01 1000.01 1000.01 1000.01 1000.01 1000.01 1000 1000.01 1000 1000 1000 1000 1000 1000 1000 1000 1000 1000 1000 1000 1000 1000 1000 1000 1000 1000 1000 1000 1000 1000 1000 1000 1000 1000 1000 1000 1000 1000 1000 1000.01 1000 1000.01 1000.01 1000.01 1000.01 1000.01 1000 1000 1000 1000 1000 1000 1000 1000 1000 1000 1000 1000 1000 1000 1000 1000 1000 1000 1000 1000 1000 1000 1000 1000 1000 1000 1000 1000 1000 1000 1000 1000 1000 1000 1000 1000 1000 1000.01 1000.01 1000.01 1000.01 1000 1000 1000 1000 1000 1000 1000 1000 1000 1000 1000 1000 1000 1000 1000 1000 1000 1000 1000 1000 1000 1000 1000 1000 1000 1000 1000 1000 1000 1000 1000 1000 1000 1000 1000 1000 1000 1000.01 1000.01 1000.01 1000.01 1000 1000 1000 1000 1000 1000 1000 1000 1000 1000 1000 1000 1000 1000 1000 1000 1000 1000 1000 1000 1000 1000 1000 1000 1000 1000 1000 1000 1000 1000 1000 1000 1000 1000 1000 1000 1000 1000.01 1000.01 1000.01 1000.01 1000 1000.01 1000 1000 1000 1000.01 1000 1000 1000 1000 1000 1000 1000 1000 1000 1000 1000 1000 1000 1000 1000 1000 1000 1000 1000 1000 1000 1000 1000 1000 1000 1000.01 1000 1000 1000 1000.01 1000 1000.01 1000.01 1000.01 1000.01 1000 1000 1000 1000 1000 1000 1000 1000 1000 1000 1000 1000 1000 1000 1000 1000 1000 1000 1000 1000 1000 1000 1000 1000 1000 1000 1000 1000 1000 1000 1000 1000 1000 1000 1000 1000 1000 1000.01 1000.01 1000.01 1000.01 1000 1000 1000 1000 1000 1000 1000 1000 1000 1000 1000 1000 1000 1000 1000 1000 1000 1000 1000 1000 1000 1000 1000 1000 1000 1000 1000 1000 1000 1000 1000 1000 1000 1000 1000 1000 1000 1000.01 1000.01 1000.01 1000.01 1000 1000 1000 1000 1000 1000 1000 1000 1000 1000 1000 1000 1000 1000 1000 1000 1000 1000 1000 1000 1000 1000 1000 1000 1000 1000 1000 1000 1000 1000 1000 1000 1000 1000 1000 1000 1000 1000.01 1000.01 1000.01 1000.01 1000 1000 1000 1000 1000 1000 1000 1000 1000 1000 1000 1000 1000 1000 1000 1000 1000 1000 1000 1000 1000 1000 1000 1000 1000 1000 1000 1000 1000 1000 1000 1000 1000 1000 1000 1000 1000 1000.01 1000.01 1000.01 1000.01 1000 1000 1000 1000 1000 1000 1000 1000 1000 1000 1000 1000 1000 1000 1000 1000 1000 1000 1000 1000 1000 1000 1000 1000 1000 1000 1000 1000 1000 1000 1000 1000 1000 1000 1000 1000 1000 1000.01 1000.01 1000.01 1000 1000.01 1000 1000.01 1000 1000 1000 1000 1000 1000 1000 1000 1000 1000 1000 1000 1000 1000 1000 1000 1000 1000 1000 1000 1000 1000 1000 1000 1000 1000 1000 1000 1000 1000 1000 1000.01 1000 1000.01 1000 1000.01 1000.01 1000.01 1000 1000 1000 1000 1000 1000 1000 1000 1000 1000 1000 1000 1000 1000 1000 1000 1000 1000 1000 1000 1000 1000 1000 1000 1000 1000 1000 1000 1000 1000 1000 1000 1000 1000 1000 1000 1000 1000.01 1000.01 1000.01 1000.01 1000 1000 1000 1000 1000 1000 1000 1000 1000 1000 1000 1000 1000 1000 1000 1000 1000 1000 1000 1000 1000 1000 1000 1000 1000 1000 1000 1000 1000 1000 1000 1000 1000 1000 1000 1000 1000 1000.01 1000.01 1000.01 1000.01 1000.01 1000 1000.01 1000 1000 1000 1000 1000 1000 1000 1000 1000 1000 1000 1000 1000 1000 1000 1000 1000 1000 1000 1000 1000 1000 1000 1000 1000 1000 1000 1000 1000 1000 1000 1000.01 1000 1000.01 1000.01 1000.01 1000.01 1000.01 1000.01 1000 1000.01 1000 1000 1000 1000 1000 1000 1000 1000 1000 1000 1000 1000 1000 1000 1000 1000 1000 1000 1000 1000 1000 1000 1000 1000 1000 1000 1000 1000 1000 1000 1000 1000.01 1000 1000.01 1000.01 1000.01 1000.01 1000.01 1000 1000 1000 1000 1000 1000 1000 1000 1000 1000 1000 1000 1000 1000 1000 1000 1000 1000 1000 1000 1000 1000 1000 1000 1000 1000 1000 1000 1000 1000 1000 1000 1000 1000 1000 1000 1000 1000.01 1000.01 1000.01 1000.01 1000 1000 1000 1000 1000 1000 1000 1000 1000 1000 1000 1000 1000 1000 1000 1000 1000 1000 1000 1000 1000 1000 1000 1000 1000 1000 1000 1000 1000 1000 1000 1000 1000 1000 1000 1000 1000 1000.01 1000.01 1000.01 1000 1000.01 1000 1000.01 1000 1000 1000 1000 1000 1000 1000 1000 1000 1000 1000 1000 1000 1000 1000 1000 1000 1000 1000 1000 1000 1000 1000 1000 1000 1000 1000 1000 1000 1000 1000 1000.01 1000 1000.01 1000 1000.01 1000.01 1000.01 1000 1000 1000 1000 1000 1000 1000 1000 1000 1000 1000 1000 1000 1000 1000 1000 1000 1000 1000 1000 1000 1000 1000 1000 1000 1000 1000 1000 1000 1000 1000 1000 1000 1000 1000 1000 1000 1000.01 1000.01 1000.01 1000.01 1000 1000 1000 1000 1000 1000 1000 1000 1000 1000 1000 1000 1000 1000 1000 1000 1000 1000 1000 1000 1000 1000 1000 1000 1000 1000 1000 1000 1000 1000 1000 1000 1000 1000 1000 1000 1000 1000.01 1000.01 1000.01 1000.01 1000.01 1000 1000.01 1000 1000 1000 1000 1000 1000 1000 1000 1000 1000 1000 1000 1000 1000 1000 1000 1000 1000 1000 1000 1000 1000 1000 1000 1000 1000 1000 1000 1000 1000 1000 1000.01 1000 1000.01 1000.01 1000.01 1000.01 1000.01 1000.01 1000 1000.01 1000 1000 1000 1000 1000 1000 1000 1000 1000 1000 1000 1000 1000 1000 1000 1000 1000 1000 1000 1000 1000 1000 1000 1000 1000 1000 1000 1000 1000 1000 1000 1000.01 1000 1000.01 1000.01 1000.01 1000.01 1000.01 1000 1000 1000 1000 1000 1000 1000 1000 1000 1000 1000 1000 1000 1000 1000 1000 1000 1000 1000 1000 1000 1000 1000 1000 1000 1000 1000 1000 1000 1000 1000 1000 1000 1000 1000 1000 1000 1000.01 1000.01 1000.01 1000.01 1000 1000 1000 1000 1000 1000 1000 1000 1000 1000 1000 1000 1000 1000 1000 1000 1000 1000 1000 1000 1000 1000 1000 1000 1000 1000 1000 1000 1000 1000 1000 1000 1000 1000 1000 1000 1000 1000.01 1000.01 1000.01 1000.01 1000.01 1000 1000.01 1000 1000 1000 1000 1000 1000 1000 1000 1000.01 1000 1000 1000 1000 1000 1000 1000 1000 1000 1000 1000 1000 1000 1000 1000 1000 1000 1000 1000 1000 1000 1000 1000.01 1000 1000.01 1000.01 1000.01 1000.01 1000.01 1000.01 1000.01 1000.01 1000 1000.01 1000 1000 1000 1000 1000 1000 1000 1000 1000 1000 1000 1000 1000 1000 1000 1000 1000 1000 1000 1000 1000 1000 1000 1000 1000 1000 1000 1000.01 1000 1000.01 1000.01 1000.01 1000.01 1000.01 1000.01 1000.02 1000.01 1000.01 1000.01 1000 1000.01 1000 1000 1000 1000 1000 1000 1000 1000 1000 1000 1000 1000 1000 1000 1000 1000 1000 1000 1000 1000 1000 1000 1000 1000 1000 1000 1000 1000 1000.01 1000.01 1000.01 1000.01 1000.01 1000.01 1000.01 1000.01 1000 1000 1000 1000.01 1000 1000 1000.01 1000.01 1000 1000 1000 1000 1000 1000 1000 1000 1000 1000.01 1000 1000 1000.01 1000.01 1000 1000 1000.01 1000 1000 1000.01 1000.01 1000 1000 1000.01 1000.01 1000.01 1000 1000.01 1000.01 1000.01 1000.01 1000.01 1000.01 1000.01 1000.01 1000.01 1000.01 1000.01 1000 1000 1000 1000 1000 1000 1000.01 1000 1000 1000 1000 1000 1000 1000 1000 1000 1000 1000 1000 1000 1000 1000 1000 1000 1000 1000 1000 1000.01 1000.01 1000.01 1000.01 1000.01 1000.01 1000.01 1000.01 1000.02 1000.02 1000.01 1000.01 1000.01 1000.01 1000 1000.01 1000.01 1000 1000 1000 1000 1000 1000 1000 1000 1000 1000.01 1000 1000 1000.01 1000.01 1000 1000 1000.01 1000 1000 1000.01 1000.01 1000 1000 1000.01 1000.01 1000.01 1000.01 1000.01 1000.02 1000.02 1000.01 1000.01 1000.02 1000.01 1000.01 1000.01 1000.01 1000.01 1000.01 1000.01 1000.01 1000.01 1000.01 1000.01 1000.01 1000.01 1000.01 1000.01 1000.01 1000.01 1000 1000.01 1000.01 1000.01 1000.01 1000.01 1000.01 1000 1000.01 1000.01 1000.01 1000.01 1000.01 1000.01 1000.01 1000.01 1000.01 1000.01 1000.01 1000.02 1000.02 1000.01 1000.01 1000.01 1000.02 1000.01 1000.01 1000.01 1000.01 1000.01 1000.01 1000.01 1000.01 1000.01 1000.01 1000.01 1000.01 1000.01 1000.01 1000.01 1000.01 1000.01 1000.01 1000.01 1000.01 1000.01 1000.01 1000.01 1000.01 1000.01 1000.01 1000.01 1000.01 1000.01 1000.01 1000.01 1000.01 1000.01 1000.01 1000.01 1000.01 1000.01 1000.01 1000 1000 1000 1000 1000 1000 1000 1000 1000 1000 1000 1000 1000 1000 1000 1000 1000 1000 1000 1000 1000 1000 1000 1000 1000 1000 1000 1000 1000 1000 1000 1000 1000 1000 1000 1000 1000 1000 1000 1000 1000 1000 1000 1000 1000 1000 1000 1000 1000 1000 1000 1000 1000 1000 1000 1000 1000 1000 1000 1000 1000 1000 1000 1000 1000 1000 1000 1000 1000 1000 1000 1000 1000 1000 1000 1000 1000 1000 1000 1000 1000 1000 1000 1000 1000 1000 1000 1000 1000 1000 1000 1000 1000 1000 1000 1000 1000 1000 1000 1000 1000 1000 1000 1000 1000 1000 1000 1000 1000 1000 1000 1000 1000 1000 1000 1000 1000 1000 1000 1000 1000 1000 1000 1000 1000 1000 1000 1000 1000 1000 1000 1000 1000 1000 1000 1000 1000 1000 1000 1000 1000 1000 1000 1000 1000 1000 1000 1000 1000 1000 1000 1000 1000 1000 1000 1000 1000 1000 1000 1000 1000 1000 1000 1000 1000 1000 1000 1000 1000 1000 1000 1000 1000 1000 1000 1000 1000 1000 1000 1000 1000 1000 1000 1000 1000 1000 1000 1000 1000 1000 1000 1000 1000 1000 1000 1000 1000 1000 1000 1000 1000 1000 1000 1000 1000 1000 1000 1000 1000 1000 1000 1000 1000 1000 1000 1000 1000 1000 1000 1000 1000 1000 1000 1000 1000 1000 1000 1000 1000 1000 1000 1000 1000 1000 1000 1000 1000 1000 1000 1000 1000 1000 1000 1000 1000 1000 1000 1000 1000 1000 1000 1000 1000 1000 1000 1000 1000 1000 1000 1000 1000 1000 1000 1000 1000 1000 1000 1000 1000 1000 1000 1000 1000 1000 1000 1000 1000 1000 1000 1000 1000 1000 1000 1000 1000 1000 1000 1000 1000 1000 1000 1000 1000 1000 1000 1000 1000 1000 1000 1000 1000 1000 1000 1000 1000 1000 1000 1000 1000 1000 1000 1000 1000 1000 1000 1000 1000 1000 1000 1000 1000 1000 1000 1000 1000 1000 1000 1000 
</DataArray>
<DataArray type="Float32" Name="Velocity" NumberOfComponents="3" format="ascii">
0.0043111877 0.0059622359 0
-3.8421473e-05 0.0058449898 0
-0.00032846327 0.0052605327 0
0.00025648851 0.0046792193 0
0.00011479748 0.0039615072 0
0.00013502824 0.002899199 0
9.1169641e-06 0.0039890963 0
8.0406619e-07 0.003997976 0
1.5946866e-06 0.0028733946 0
2.2454217e-06 0.0028720682 0
-7.0294101e-07 0.0039979727 0
2.5930831e-07 0.0039979862 0
-2.570066e-07 0.0039979802 0
2.7219105e-10 0.0048620622 0
-8.363337e-07 0.0039979871 0
-1.1441018e-07 0.0039979871 0
-8.2972683e-08 0.0039979867 0
-2.5388556e-07 0.0039979913 0
1.0549526e-06 0.0039979774 0
1.3101956e-06 0.0028535889 0
3.8998911e-07 0.0039979857 0
2.027128e-09 0.0039979904 0
1.2896437e-07 0.0028655136 0
-8.2751725e-08 0.0028655212 0
-1.6032006e-07 0.0039979876 0
-3.8168298e-07 0.0039979848 0
2.9114108e-10 0.0028536695 0
3.8168298e-07 0.0039979848 0
1.6032e-07 0.0039979876 0
1.0704964e-07 0.0028655212 0
-1.0708163e-06 0.0028653343 0
-3.4355233e-07 0.0039979876 0
3.4614629e-07 0.0039979876 0
-7.2203725e-06 0.0028654889 0
-3.8048664e-05 0.0028692149 0
-0.00018728989 0.0039314763 0
-0.00011123826 0.0039129988 0
-0.00015991778 0.0029066221 0
-0.0010411598 0.0040629231 0
1.6286223e-05 0.0038298634 0
-0.0046189982 0.0043837363 0
0.0041844272 0.001169152 0
0.00068611372 0.0012750631 0
0.00012261519 0.00049113197 0
0.00013163261 0.00073618948 0
0.00021424436 0.00092359446 0
0.00010563972 0.00057251239 0
4.1636769e-05 0.0011039417 0
1.5723961e-05 0.0011181362 0
3.554155e-06 0.00087094476 0
8.1078706e-06 0.00087099697 0
3.7389284e-06 0.001118161 0
2.9444511e-06 0.0011181843 0
6.433796e-06 0.0011184352 0
-7.0731159e-07 0.0013744207 0
-2.8921045e-06 0.001118298 0
1.2013245e-06 0.0011184155 0
3.8929766e-06 0.0011184369 0
3.7505313e-06 0.0011184206 0
4.5851421e-06 0.0011183086 0
-2.552148e-08 0.00073709554 0
-1.3192463e-06 0.0011183025 0
-7.0883357e-07 0.0011181731 0
1.7511779e-06 0.00087035942 0
-1.5907694e-06 0.00087036297 0
1.1869549e-06 0.001118277 0
2.2251181e-06 0.0011182668 0
1.1146837e-07 0.00073696475 0
-3.8703524e-06 0.0011182821 0
-2.4077442e-06 0.0011182642 0
-3.4258037e-06 0.00087038986 0
-1.0022794e-06 0.00087044504 0
-8.1962171e-06 0.001118232 0
-5.4462002e-06 0.0011181972 0
-1.5433059e-05 0.00086961029 0
-2.1325541e-05 0.00086563564 0
-0.00022050075 0.0010435649 0
-0.00010085409 0.00110349 0
-0.00022916932 0.0005749485 0
-0.0004623296 0.00034139972 0
-0.00055077724 0.00056407321 0
-0.0037918419 -8.0391939e-05 0
0.0034753236 0.00061828503 0
0.00022559268 0.00030156618 0
0.00073072285 4.2091666e-05 0
0.00035954401 6.86493e-05 0
0.00014396419 -0.0001344833 0
0.0002081868 3.6257527e-05 0
2.7283602e-05 0.00010281967 0
-9.6275253e-06 0.00011454675 0
5.2324829e-08 0.00019167637 0
3.1777631e-06 0.00019218358 0
7.3588694e-06 0.00011406411 0
1.0400472e-06 0.00011338254 0
-9.9920169e-07 0.0001132034 0
-8.7319171e-07 7.7151883e-05 0
2.3609834e-08 0.00011340653 0
-4.1709163e-07 0.00011349376 0
9.358051e-08 0.00011347325 0
3.2151111e-06 0.00011348221 0
-1.8949254e-06 0.00011338101 0
3.5393032e-06 0.00017250935 0
2.233373e-07 0.00011333149 0
-8.7530725e-06 0.00011340719 0
2.6771309e-06 0.00019313628 0
-2.1539338e-06 0.00019318619 0
5.4439929e-06 0.00011342326 0
-4.5525608e-06 0.00011352037 0
-1.7251102e-06 0.00017211112 0
-2.1880212e-06 0.00011357595 0
-2.0812543e-06 0.0001136541 0
1.2182579e-07 0.000192897 0
-2.7354706e-06 0.000192577 0
5.3144699e-06 0.00011385585 0
-8.4444318e-06 0.000114086 0
-1.2026772e-05 0.00019229311 0
-3.3501601e-05 0.00018733325 0
-0.0001219103 3.4967299e-05 0
-0.00010544498 6.4113578e-05 0
-0.00032884401 0.00018537865 0
-0.00043252436 0.00045582742 0
-0.00025662928 0.00053625647 0
-0.0039051434 0.00094166026 0
0.0040726899 0.00044798403 0
0.00080541713 0.00044057652 0
0.00053284399 0.00036768964 0
0.00015684582 0.00015684668 0
7.6155866e-06 0.00024515216 0
0.00011010438 0.00013633452 0
8.8489767e-05 0.00014696972 0
5.0838325e-06 0.00014523882 0
-9.524382e-07 0.00012797181 0
4.0570239e-06 0.00012804789 0
8.8768854e-07 0.0001449463 0
2.7901719e-06 0.00014450656 0
2.1617029e-06 0.00014423547 0
1.6262965e-06 0.00020402636 0
-4.7828081e-07 0.00014428505 0
-3.2467014e-07 0.00014431406 0
2.8414524e-07 0.00014431436 0
2.5435668e-07 0.00014431332 0
5.5058854e-07 0.00014471659 0
-3.2828675e-06 0.00010601289 0
-1.9649503e-06 0.00014483626 0
1.7150981e-06 0.00014493889 0
1.0040936e-06 0.00012802296 0
-5.6204709e-07 0.00012803313 0
-1.0141902e-06 0.00014482268 0
3.8659291e-06 0.00014475403 0
5.9942482e-09 0.00010617288 0
-3.8335106e-06 0.00014475462 0
1.0431776e-06 0.00014482463 0
5.9366579e-07 0.00012805729 0
-7.9461887e-07 0.00012818177 0
-2.2963291e-06 0.00014497529 0
-9.8295968e-06 0.00014529118 0
-1.5400759e-05 0.00012816608 0
-5.7466445e-05 0.00012346111 0
-8.8289504e-05 0.00019052433 0
-0.00012073352 0.00016039397 0
-0.00022091014 0.0002003968 0
-8.5143009e-05 0.00033758889 0
-0.00099171582 0.00011443365 0
-0.0040385514 0.00033496204 0
0.0041499734 0.0005607942 0
0.0010097588 0.00014131254 0
0.00020977616 0.00015264134 0
0.00016967987 8.0280464e-05 0
7.8971309e-05 6.6157685e-05 0
5.7917419e-05 0.00010074623 0
4.3538512e-05 7.348122e-05 0
3.8330181e-06 7.3406671e-05 0
2.6852544e-07 6.5686239e-05 0
5.3057106e-06 6.5496504e-05 0
-9.0040129e-07 7.3196548e-05 0
-7.3278596e-07 7.3232914e-05 0
1.8260221e-07 7.3049123e-05 0
-1.6952166e-07 8.2407278e-05 0
-3.6669744e-07 7.3046278e-05 0
1.4142127e-07 7.3082265e-05 0
1.53757e-07 7.3081443e-05 0
3.6715201e-07 7.3081639e-05 0
1.0666289e-06 7.3187213e-05 0
5.2643622e-07 6.3013467e-05 0
1.0714279e-07 7.3161995e-05 0
7.6661041e-07 7.3246985e-05 0
-4.1206044e-06 6.4413718e-05 0
4.2462029e-06 6.4418098e-05 0
-2.2913542e-07 7.3166062e-05 0
-2.1799433e-09 7.315931e-05 0
1.4352963e-15 6.3046617e-05 0
2.1722917e-09 7.315931e-05 0
2.2913545e-07 7.3166069e-05 0
-4.246418e-06 6.4418091e-05 0
4.2773372e-06 6.4414795e-05 0
-3.7663051e-07 7.3163232e-05 0
3.8072025e-07 7.3190218e-05 0
-6.4601868e-06 6.4419764e-05 0
-4.7898458e-05 6.6592853e-05 0
-0.00016191498 3.504461e-05 0
-6.1173945e-05 0.00013737926 0
-0.00015939801 9.6205913e-05 0
-9.2654962e-05 6.0929804e-05 0
-0.0011061068 0.00019899783 0
-0.0038036527 0.00026349747 0
0.002915648 0.00015641459 0
0.00072303152 0.00014181051 0
0.00031652668 7.3334682e-05 0
8.2261424e-05 7.2325718e-05 0
0.00011993134 0.00010303839 0
1.5378702e-05 2.502632e-05 0
9.3231829e-06 9.1947979e-05 0
6.5957374e-06 8.488803e-05 0
2.5472521e-06 3.5065677e-06 0
-1.3602154e-06 3.4799832e-06 0
1.643748e-07 8.4874555e-05 0
-1.0206667e-07 8.487676e-05 0
-1.8478687e-06 8.4832682e-05 0
6.4565057e-07 6.656786e-05 0
6.927043e-07 8.4845451e-05 0
1.6005086e-07 8.4876658e-05 0
-7.2299775e-07 8.4876789e-05 0
-2.3600016e-07 8.4876658e-05 0
4.6215689e-07 8.4874548e-05 0
8.2694248e-07 3.3348242e-06 0
1.0585232e-07 8.4881409e-05 0
8.4726014e-07 8.4876745e-05 0
9.1232437e-07 3.3821905e-06 0
-9.1237075e-07 3.3821916e-06 0
-1.2827421e-07 8.4876323e-05 0
2.4821421e-08 8.4877669e-05 0
3.1839422e-15 3.3483216e-06 0
-2.4821421e-08 8.4877669e-05 0
1.2827421e-07 8.4876323e-05 0
9.1237058e-07 3.3821916e-06 0
-9.1238172e-07 3.3821884e-06 0
-3.6447008e-07 8.4875974e-05 0
3.6449714e-07 8.4876083e-05 0
-1.3475535e-06 3.3826645e-06 0
-5.0271505e-05 -8.5224319e-06 0
8.6473328e-06 0.00016554439 0
-5.4309905e-05 0.00014081722 0
-0.00018416367 3.4779863e-05 0
-0.00018683805 0.00017889448 0
-0.00080517621 0.00011563965 0
-0.0028790866 5.4929271e-05 0
0.0039429571 1.9889038e-05 0
0.0012085179 3.4834222e-05 0
0.00020069983 8.615003e-05 0
0.00013511608 0.00013828208 0
0.00014727426 4.9352486e-05 0
0.00011323766 -7.8439434e-06 0
3.5395988e-05 3.4677083e-05 0
2.3737916e-06 3.4351258e-05 0
1.2724649e-06 -2.4470164e-09 0
-3.7018779e-07 -7.2410855e-10 0
-2.6786387e-07 3.4349367e-05 0
-3.576266e-08 3.4349254e-05 0
5.4511912e-07 3.4348941e-05 0
1.1733919e-11 7.4239841e-05 0
-5.3963311e-07 3.4349094e-05 0
-2.9659304e-07 3.4349279e-05 0
-2.1519223e-07 3.4349254e-05 0
1.2884782e-07 3.4349392e-05 0
5.3815825e-08 3.4350778e-05 0
3.1522353e-07 -3.5018091e-09 0
-1.4569423e-07 3.4350262e-05 0
4.3776527e-07 3.4349821e-05 0
3.6827799e-07 -9.3874564e-10 0
-3.682778e-07 -9.3874353e-10 0
-4.3551375e-07 3.4349709e-05 0
1.4044743e-07 3.4350243e-05 0
1.2246203e-15 -2.5196334e-09 0
-1.4044743e-07 3.4350243e-05 0
4.3551375e-07 3.4349709e-05 0
3.682778e-07 -9.3874353e-10 0
-3.6827785e-07 -9.3874397e-10 0
-5.4209477e-07 3.4349709e-05 0
-2.9754344e-07 3.4351397e-05 0
-2.5954598e-06 -7.3073618e-09 0
-7.552679e-05 5.4373821e-05 0
-5.7180328e-05 6.1066792e-05 0
-7.1346498e-05 4.1569998e-05 0
-0.00015639119 4.9291273e-05 0
-0.00010970072 5.099953e-05 0
-0.0011065284 3.8509657e-05 0
-0.0039773225 5.3657997e-05 0