<?xml version="1.0" ?>

<VTKFile type="UnstructuredGrid" version="0.1" byte_order="BigEndian">

<UnstructuredGrid>

<Piece NumberOfPoints= " 2009 " NumberOfCells=" 2009 ">

<PointData Scalars="Pressure" Vectors="Velocity">

<DataArray type="Float32" Name="Pressure" format="ascii">

9.54897 14.1627 12.2314 10.7292 10.0854 15.7722 7.61767 7.61767 6.75932 6.75932 7.61767 7.61767 7.61767 6.86661 7.61767 7.61767 7.61767 7.61767 7.61767 6.65203 7.61767 7.61767 6.75932 6.75932 7.61767 7.61767 6.65203 7.61767 7.61767 6.75932 6.75932 7.61767 7.61767 6.75932 6.97391 11.8022 10.4073 7.83225 11.6949 9.97815 11.5876 17.2744 19.4205 17.489 10.3 12.6606 9.97815 9.22708 9.22708 8.15414 8.15414 9.22708 9.11979 9.11979 7.93955 9.11979 9.11979 9.11979 9.11979 9.22708 4.07701 9.22708 9.22708 8.15414 8.15414 9.22708 9.22708 4.07701 9.22708 9.22708 8.15414 8.15414 9.22708 9.22708 8.15414 8.15414 16.416 9.33438 9.22708 14.1627 14.6992 6.75932 18.1328 15.7722 16.416 9.76356 9.33438 12.446 4.72076 4.72076 7.29579 7.29579 4.72076 4.72076 4.72076 1.60933 4.72076 4.72076 4.72076 4.72076 4.72076 4.50618 4.72076 4.72076 7.29579 7.29579 4.72076 4.72076 4.50618 4.72076 4.72076 7.29579 7.29579 4.72076 4.72076 7.40308 7.40308 12.2314 7.0812 6.86661 16.5233 12.7679 17.1671 16.416 12.2314 10.7292 3.43327 2.89681 16.7379 2.89681 2.57494 5.36451 5.25722 2.57494 2.57494 2.46765 6.65203 2.46765 2.46765 2.46765 2.46765 2.57494 5.04264 2.57494 2.57494 5.25722 5.25722 2.57494 2.57494 5.04264 2.57494 2.57494 5.25722 5.25722 2.57494 2.57494 5.25722 5.47181 12.9825 3.43327 6.65203 7.72496 10.7292 11.5876 7.83225 9.76356 8.04684 0.75102 1.07289 9.54897 0.321865 0 2.14578 2.03849 0 0 0 0.107288 0 0 0 0 0 1.9312 0 0 2.03849 2.03849 0 0 1.9312 0 0 2.03849 2.03849 0 0 2.03849 2.36036 8.26143 1.50204 5.04264 6.97391 8.58331 8.26143 9.87085 5.79368 5.90098 5.5791 9.97815 1.82391 8.15414 8.15414 0 0 8.15414 8.15414 8.15414 0.214577 8.15414 8.15414 8.15414 8.15414 8.15414 0 8.15414 8.15414 0 0 8.15414 8.15414 0 8.15414 8.15414 0 0 8.15414 8.15414 0 2.36036 11.6949 10.5146 10.5146 13.9481 14.1627 10.9438 8.26143 10.5146 6.33015 9.87085 1.07289 8.58331 0.321865 0.214577 0 0 0.214577 0.214577 0.214577 5.25722 0.214577 0.214577 0.214577 0.214577 0.214577 0 0.214577 0.214577 0 0 0.214577 0.214577 0 0.214577 0.214577 0 0 0.214577 0.214577 0 0.965598 9.33438 0.107288 2.57494 4.72076 9.22708 9.22708 9.76356 12.8752 13.7335 3.43327 0.107288 9.97815 0.107288 0 0 0 0 0 0 1.60933 0 0 0 0 0 0 0 0 0 0 0 0 0 0 0 0 0 0 0 0 0.214577 8.15414 0 2.57494 4.72076 9.22708 7.61767 6.75932 9.76356 8.9052 5.36451 2.14578 4.39889 0.858309 0 0 0 0 0 0 0 0 0 0 0 0 0 0 0 0 0 0 0 0 0 0 0 0 0 0 0 0 0 2.14578 5.36451 7.29579 8.15414 6.75932 6.75932 8.15414 7.29579 5.36451 2.14578 0 0 0 0 0 0 0 0 0 0 0 0 0 0 0 0 0 0 0 0 0 0 0 0 0 0 0 0 0 0 0 2.03849 5.25722 7.29579 8.15414 6.75932 7.61767 9.22708 4.72076 2.57494 0 8.15414 0.214577 0 0 0 0 0 0 0 0 0 0 0 0 0 0 0 0 0 0 0 0 0 0 0 0 0 0 0 0.214577 8.15414 0 2.57494 4.72076 9.22708 7.61767 7.61767 9.11979 4.72076 2.57494 0 8.15414 0.214577 0 0 0 0 0 0 0 0 0 0 0 0 0 0 0 0 0 0 0 0 0 0 0 0 0 0 0 0.214577 8.15414 0 2.57494 4.72076 9.11979 7.61767 7.61767 9.11979 4.72076 2.46765 0 8.15414 0.214577 0 0 0 0 0 0 0 0 0 0 0 0 0 0 0 0 0 0 0 0 0 0 0 0 0 0 0 0.214577 8.15414 0 2.46765 4.72076 9.11979 7.61767 6.86661 7.93955 1.60933 6.65203 0.107288 0.214577 5.25722 1.60933 0 0 0 0 0 0 0 0 0 0 0 0 0 0 0 0 0 0 0 0 0 0 0 0 0 1.60933 5.25722 0.214577 0.107288 6.65203 1.60933 7.93955 6.86661 7.61767 9.11979 4.72076 2.46765 0 8.15414 0.214577 0 0 0 0 0 0 0 0 0 0 0 0 0 0 0 0 0 0 0 0 0 0 0 0 0 0 0 0.214577 8.15414 0 2.46765 4.72076 9.11979 7.61767 7.61767 9.11979 4.72076 2.46765 0 8.15414 0.214577 0 0 0 0 0 0 0 0 0 0 0 0 0 0 0 0 0 0 0 0 0 0 0 0 0 0 0 0.214577 8.15414 0 2.46765 4.72076 9.11979 7.61767 7.61767 9.11979 4.72076 2.46765 0 8.15414 0.214577 0 0 0 0 0 0 0 0 0 0 0 0 0 0 0 0 0 0 0 0 0 0 0 0 0 0 0 0.214577 8.15414 0 2.46765 4.72076 9.11979 7.61767 7.61767 9.11979 4.72076 2.46765 0 8.15414 0.214577 0 0 0 0 0 0 0 0 0 0 0 0 0 0 0 0 0 0 0 0 0 0 0 0 0 0 0 0.214577 8.15414 0 2.46765 4.72076 9.11979 7.61767 7.61767 9.22708 4.72076 2.57494 0 8.15414 0.214577 0 0 0 0 0 0 0 0 0 0 0 0 0 0 0 0 0 0 0 0 0 0 0 0 0 0 0 0.214577 8.15414 0 2.57494 4.72076 9.22708 7.61767 6.65203 4.07701 4.50618 5.04264 1.9312 0 0 0 0 0 0 0 0 0 0 0 0 0 0 0 0 0 0 0 0 0 0 0 0 0 0 0 0 0 0 0 1.9312 5.04264 4.50618 4.07701 6.65203 7.61767 9.22708 4.72076 2.57494 0 8.15414 0.214577 0 0 0 0 0 0 0 0 0 0 0 0 0 0 0 0 0 0 0 0 0 0 0 0 0 0 0 0.214577 8.15414 0 2.57494 4.72076 9.22708 7.61767 7.61767 9.22708 4.72076 2.57494 0 8.15414 0.214577 0 0 0 0 0 0 0 0 0 0 0 0 0 0 0 0 0 0 0 0 0 0 0 0 0 0 0 0.214577 8.15414 0 2.57494 4.72076 9.22708 7.61767 6.75932 8.15414 7.29579 5.25722 2.03849 0 0 0 0 0 0 0 0 0 0 0 0 0 0 0 0 0 0 0 0 0 0 0 0 0 0 0 0 0 0 0 2.03849 5.25722 7.29579 8.15414 6.75932 6.75932 8.15414 7.29579 5.25722 2.03849 0 0 0 0 0 0 0 0 0 0 0 0 0 0 0 0 0 0 0 0 0 0 0 0 0 0 0 0 0 0 0 2.03849 5.25722 7.29579 8.15414 6.75932 7.61767 9.22708 4.72076 2.57494 0 8.15414 0.214577 0 0 0 0 0 0 0 0 0 0 0 0 0 0 0 0 0 0 0 0 0 0 0 0 0 0 0 0.214577 8.15414 0 2.57494 4.72076 9.22708 7.61767 7.61767 9.22708 4.72076 2.57494 0 8.15414 0.214577 0 0 0 0 0 0 0 0 0 0 0 0 0 0 0 0 0 0 0 0 0 0 0 0 0 0 0 0.214577 8.15414 0 2.57494 4.72076 9.22708 7.61767 6.65203 4.07701 4.50618 5.04264 1.9312 0 0 0 0 0 0 0 0 0 0 0 0 0 0 0 0 0 0 0 0 0 0 0 0 0 0 0 0 0 0 0 1.9312 5.04264 4.50618 4.07701 6.65203 7.61767 9.22708 4.72076 2.57494 0 8.15414 0.214577 0 0 0 0 0 0 0 0 0 0 0 0 0 0 0 0 0 0 0 0 0 0 0 0 0 0 0 0.214577 8.15414 0 2.57494 4.72076 9.22708 7.61767 7.61767 9.22708 4.72076 2.57494 0 8.15414 0.214577 0 0 0 0 0 0 0 0 0 0 0 0 0 0 0 0 0 0 0 0 0 0 0 0 0 0 0 0.214577 8.15414 0 2.57494 4.72076 9.22708 7.61767 6.75932 8.15414 7.29579 5.25722 2.03849 0 0 0 0 0 0 0 0 0 0 0 0 0 0 0 0 0 0 0 0 0 0 0 0 0 0 0 0 0 0 0 2.03849 5.25722 7.29579 8.15414 6.75932 6.75932 8.15414 7.29579 5.25722 2.03849 0 0 0 0 0 0 0 0 0 0 0 0 0 0 0 0 0 0 0 0 0 0 0 0 0 0 0 0 0 0 0 2.03849 5.25722 7.29579 8.15414 6.75932 7.61767 9.22708 4.72076 2.57494 0 8.15414 0.214577 0 0 0 0 0 0 0 0 0 0 0 0 0 0 0 0 0 0 0 0 0 0 0 0 0 0 0 0.214577 8.15414 0 2.57494 4.72076 9.22708 7.61767 7.61767 9.22708 4.72076 2.57494 0 8.15414 0.214577 0 0 0 0 0 0 0 0 0 0 0 0 0 0 0 0 0 0 0 0 0 0 0 0 0 0 0 0.214577 8.15414 0 2.57494 4.72076 9.22708 7.61767 6.75932 8.15414 7.40308 5.25722 2.03849 0 0 0 0 0 0 0 0 1.60933 0 0 0 0 0 0 0 0 0 0 0 0 0 0 0 0 0 0 0 0 0 0 2.03849 5.36451 7.29579 8.15414 6.75932 6.97391 8.15414 7.40308 5.47181 2.36036 2.36036 0.965598 0.214577 0 0 0.214577 0.214577 0.214577 5.25722 0.214577 0.214577 0.214577 0.214577 0.214577 0 0.214577 0.214577 0 0 0.214577 0.214577 0 0.214577 0.214577 0 0 0.214577 0.214577 0 0.643732 2.03849 2.25307 5.36451 7.40308 8.15414 6.86661 11.8022 16.416 12.2314 12.9825 8.26143 11.6949 9.33438 8.15414 0 0 8.15414 8.15414 8.15414 0.214577 8.15414 8.15414 8.15414 8.15414 8.15414 0 8.15414 8.15414 0 0 8.15414 8.15414 0 8.15414 8.15414 0 0 8.15414 8.15414 0 2.03849 19.0985 8.26143 7.93955 11.9095 14.1627 18.8839 10.4073 9.33438 7.0812 3.43327 1.50204 10.5146 0.107288 0 2.14578 2.03849 0 0 0 0.107288 0 0 0 0 0 1.9312 0 0 2.03849 2.03849 0 0 1.9312 0 0 2.03849 2.03849 0 0 2.03849 2.25307 8.26143 1.60933 5.04264 7.51037 9.44167 7.83225 7.83225 9.22708 6.86661 6.65203 5.04264 10.5146 2.57494 2.57494 5.36451 5.25722 2.57494 2.57494 2.46765 6.65203 2.46765 2.46765 2.46765 2.46765 2.57494 5.04264 2.57494 2.57494 5.25722 5.25722 2.57494 2.57494 5.04264 2.57494 2.57494 5.25722 5.25722 2.57494 2.57494 5.36451 5.36451 7.93955 5.04264 10.5146 7.40308 9.65626 11.5876 11.6949 14.1627 16.5233 7.72496 6.97391 13.9481 4.72076 4.72076 7.29579 7.29579 4.72076 4.72076 4.72076 1.60933 4.72076 4.72076 4.72076 4.72076 4.72076 4.50618 4.72076 4.72076 7.29579 7.29579 4.72076 4.72076 4.50618 4.72076 4.72076 7.29579 7.29579 4.72076 4.72076 7.29579 7.40308 11.9095 7.51037 7.40308 16.416 14.4846 11.2657 9.97815 14.6992 12.7679 10.7292 8.58331 14.1627 9.22708 9.22708 8.15414 8.15414 9.22708 9.11979 9.11979 7.93955 9.11979 9.11979 9.11979 9.11979 9.22708 4.07701 9.22708 9.22708 8.15414 8.15414 9.22708 9.22708 4.07701 9.22708 9.22708 8.15414 8.15414 9.22708 9.22708 8.15414 8.15414 14.1627 9.44167 9.65626 14.4846 15.2357 7.0812 11.5876 6.75932 17.1671 11.5876 8.26143 10.9438 9.22708 7.61767 6.75932 6.75932 7.61767 7.61767 7.61767 6.86661 7.61767 7.61767 7.61767 7.61767 7.61767 6.65203 7.61767 7.61767 6.75932 6.75932 7.61767 7.61767 6.65203 7.61767 7.61767 6.75932 6.75932 7.61767 7.61767 6.75932 6.86661 18.8839 7.83225 11.5876 11.2657 7.0812 13.9481 0.1 0.1 0.1 0.1 0.1 0.1 0.1 0.1 0.1 0.1 0.1 0.1 0.1 0.1 0.1 0.1 0.1 0.1 0.1 0.1 0.1 0.1 0.1 0.1 0.1 0.1 0.1 0.1 0.1 0.1 0.1 0.1 0.1 0.1 0.1 0.1 0.1 0.1 0.1 0.1 0.1 0.1 0.1 0.1 0.1 0.1 0.1 0.1 0.1 0.1 0.1 0.1 0.1 0.1 0.1 0.1 0.1 0.1 0.1 0.1 0.1 0.1 0.1 0.1 0.1 0.1 0.1 0.1 0.1 0.1 0.1 0.1 0.1 0.1 0.1 0.1 0.1 0.1 0.1 0.1 0.1 0.1 0.1 0.1 0.1 0.1 0.1 0.1 0.1 0.1 0.1 0.1 0.1 0.1 0.1 0.1 0.1 0.1 0.1 0.1 0.1 0.1 0.1 0.1 0.1 0.1 0.1 0.1 0.1 0.1 0.1 0.1 0.1 0.1 0.1 0.1 0.1 0.1 0.1 0.1 0.1 0.1 0.1 0.1 0.1 0.1 0.1 0.1 0.1 0.1 0.1 0.1 0.1 0.1 0.1 0.1 0.1 0.1 0.1 0.1 0.1 0.1 0.1 0.1 0.1 0.1 0.1 0.1 0.1 0.1 0.1 0.1 0.1 0.1 0.1 0.1 0.1 0.1 0.1 0.1 0.1 0.1 0.1 0.1 0.1 0.1 0.1 0.1 0.1 0.1 0.1 0.1 0.1 0.1 0.1 0.1 0.1 0.1 0.1 0.1 0.1 0.1 0.1 0.1 0.1 0.1 0.1 0.1 0.1 0.1 0.1 0.1 0.1 0.1 0.1 0.1 0.1 0.1 0.1 0.1 0.1 0.1 0.1 0.1 0.1 0.1 0.1 0.1 0.1 0.1 0.1 0.1 0.1 0.1 0.1 0.1 0.1 0.1 0.1 0.1 0.1 0.1 0.1 0.1 0.1 0.1 0.1 0.1 0.1 0.1 0.1 0.1 0.1 0.1 0.1 0.1 0.1 0.1 0.1 0.1 0.1 0.1 0.1 0.1 0.1 0.1 0.1 0.1 0.1 0.1 0.1 0.1 0.1 0.1 0.1 0.1 0.1 0.1 0.1 0.1 0.1 0.1 0.1 0.1 0.1 0.1 0.1 0.1 0.1 0.1 0.1 0.1 0.1 0.1 0.1 0.1 0.1 0.1 0.1 0.1 0.1 0.1 0.1 0.1 0.1 0.1 0.1 0.1 0.1 0.1 0.1 0.1 0.1 0.1 0.1 0.1 0.1 0.1 0.1 0.1 0.1 0.1 0.1 0.1 0.1 0.1 0.1 0.1 0.1 0.1 0.1 0.1 0.1 0.1 0.1 0.1 0.1 0.1 0.1 0.1 0.1 0.1 0.1 0.1 0.1 0.1 0.1 0.1 
</DataArray>

<DataArray type="Float32" Name="Density" format="ascii">
1000.01 1000.02 1000.01 1000.01 1000.01 1000.02 1000.01 1000.01 1000.01 1000.01 1000.01 1000.01 1000.01 1000.01 1000.01 1000.01 1000.01 1000.01 1000.01 1000.01 1000.01 1000.01 1000.01 1000.01 1000.01 1000.01 1000.01 1000.01 1000.01 1000.01 1000.01 1000.01 1000.01 1000.01 1000.01 1000.01 1000.01 1000.01 1000.01 1000.01 1000.01 1000.02 1000.02 1000.02 1000.01 1000.01 1000.01 1000.01 1000.01 1000.01 1000.01 1000.01 1000.01 1000.01 1000.01 1000.01 1000.01 1000.01 1000.01 1000.01 1000 1000.01 1000.01 1000.01 1000.01 1000.01 1000.01 1000 1000.01 1000.01 1000.01 1000.01 1000.01 1000.01 1000.01 1000.01 1000.02 1000.01 1000.01 1000.02 1000.02 1000.01 1000.02 1000.02 1000.02 1000.01 1000.01 1000.01 1000.01 1000.01 1000.01 1000.01 1000.01 1000.01 1000.01 1000 1000.01 1000.01 1000.01 1000.01 1000.01 1000.01 1000.01 1000.01 1000.01 1000.01 1000.01 1000.01 1000.01 1000.01 1000.01 1000.01 1000.01 1000.01 1000.01 1000.01 1000.01 1000.01 1000.01 1000.01 1000.02 1000.01 1000.02 1000.02 1000.01 1000.01 1000 1000 1000.02 1000 1000 1000.01 1000.01 1000 1000 1000 1000.01 1000 1000 1000 1000 1000 1000.01 1000 1000 1000.01 1000.01 1000 1000 1000.01 1000 1000 1000.01 1000.01 1000 1000 1000.01 1000.01 1000.01 1000 1000.01 1000.01 1000.01 1000.01 1000.01 1000.01 1000.01 1000 1000 1000.01 1000 1000 1000 1000 1000 1000 1000 1000 1000 1000 1000 1000 1000 1000 1000 1000 1000 1000 1000 1000 1000 1000 1000 1000 1000 1000 1000 1000 1000 1000.01 1000 1000.01 1000.01 1000.01 1000.01 1000.01 1000.01 1000.01 1000.01 1000.01 1000 1000.01 1000.01 1000 1000 1000.01 1000.01 1000.01 1000 1000.01 1000.01 1000.01 1000.01 1000.01 1000 1000.01 1000.01 1000 1000 1000.01 1000.01 1000 1000.01 1000.01 1000 1000 1000.01 1000.01 1000 1000 1000.01 1000.01 1000.01 1000.02 1000.02 1000.01 1000.01 1000.01 1000.01 1000.01 1000 1000.01 1000 1000 1000 1000 1000 1000 1000 1000.01 1000 1000 1000 1000 1000 1000 1000 1000 1000 1000 1000 1000 1000 1000 1000 1000 1000 1000 1000 1000 1000 1000.01 1000 1000 1000.01 1000.01 1000.01 1000.01 1000.01 1000.02 1000 1000 1000.01 1000 1000 1000 1000 1000 1000 1000 1000 1000 1000 1000 1000 1000 1000 1000 1000 1000 1000 1000 1000 1000 1000 1000 1000 1000 1000 1000 1000 1000 1000.01 1000 1000 1000.01 1000.01 1000.01 1000.01 1000.01 1000.01 1000.01 1000 1000 1000 1000 1000 1000 1000 1000 1000 1000 1000 1000 1000 1000 1000 1000 1000 1000 1000 1000 1000 1000 1000 1000 1000 1000 1000 1000 1000 1000 1000 1000 1000 1000.01 1000.01 1000.01 1000.01 1000.01 1000.01 1000.01 1000.01 1000 1000 1000 1000 1000 1000 1000 1000 1000 1000 1000 1000 1000 1000 1000 1000 1000 1000 1000 1000 1000 1000 1000 1000 1000 1000 1000 1000 1000 1000 1000 1000 1000 1000.01 1000.01 1000.01 1000.01 1000.01 1000.01 1000.01 1000 1000 1000.01 1000 1000 1000 1000 1000 1000 1000 1000 1000 1000 1000 1000 1000 1000 1000 1000 1000 1000 1000 1000 1000 1000 1000 1000 1000 1000 1000 1000 1000 1000.01 1000 1000 1000.01 1000.01 1000.01 1000.01 1000.01 1000.01 1000 1000 1000.01 1000 1000 1000 1000 1000 1000 1000 1000 1000 1000 1000 1000 1000 1000 1000 1000 1000 1000 1000 1000 1000 1000 1000 1000 1000 1000 1000 1000 1000 1000.01 1000 1000 1000.01 1000.01 1000.01 1000.01 1000.01 1000.01 1000 1000 1000.01 1000 1000 1000 1000 1000 1000 1000 1000 1000 1000 1000 1000 1000 1000 1000 1000 1000 1000 1000 1000 1000 1000 1000 1000 1000 1000 1000 1000 1000 1000.01 1000 1000 1000.01 1000.01 1000.01 1000.01 1000.01 1000 1000.01 1000 1000 1000.01 1000 1000 1000 1000 1000 1000 1000 1000 1000 1000 1000 1000 1000 1000 1000 1000 1000 1000 1000 1000 1000 1000 1000 1000 1000 1000 1000 1000.01 1000 1000 1000.01 1000 1000.01 1000.01 1000.01 1000.01 1000.01 1000 1000 1000.01 1000 1000 1000 1000 1000 1000 1000 1000 1000 1000 1000 1000 1000 1000 1000 1000 1000 1000 1000 1000 1000 1000 1000 1000 1000 1000 1000 1000 1000 1000.01 1000 1000 1000.01 1000.01 1000.01 1000.01 1000.01 1000.01 1000 1000 1000.01 1000 1000 1000 1000 1000 1000 1000 1000 1000 1000 1000 1000 1000 1000 1000 1000 1000 1000 1000 1000 1000 1000 1000 1000 1000 1000 1000 1000 1000 1000.01 1000 1000 1000.01 1000.01 1000.01 1000.01 1000.01 1000.01 1000 1000 1000.01 1000 1000 1000 1000 1000 1000 1000 1000 1000 1000 1000 1000 1000 1000 1000 1000 1000 1000 1000 1000 1000 1000 1000 1000 1000 1000 1000 1000 1000 1000.01 1000 1000 1000.01 1000.01 1000.01 1000.01 1000.01 1000.01 1000 1000 1000.01 1000 1000 1000 1000 1000 1000 1000 1000 1000 1000 1000 1000 1000 1000 1000 1000 1000 1000 1000 1000 1000 1000 1000 1000 1000 1000 1000 1000 1000 1000.01 1000 1000 1000.01 1000.01 1000.01 1000.01 1000.01 1000.01 1000 1000 1000.01 1000 1000 1000 1000 1000 1000 1000 1000 1000 1000 1000 1000 1000 1000 1000 1000 1000 1000 1000 1000 1000 1000 1000 1000 1000 1000 1000 1000 1000 1000.01 1000 1000 1000.01 1000.01 1000.01 1000.01 1000 1000.01 1000.01 1000 1000 1000 1000 1000 1000 1000 1000 1000 1000 1000 1000 1000 1000 1000 1000 1000 1000 1000 1000 1000 1000 1000 1000 1000 1000 1000 1000 1000 1000 1000 1000 1000 1000.01 1000.01 1000 1000.01 1000.01 1000.01 1000.01 1000 1000 1000.01 1000 1000 1000 1000 1000 1000 1000 1000 1000 1000 1000 1000 1000 1000 1000 1000 1000 1000 1000 1000 1000 1000 1000 1000 1000 1000 1000 1000 1000 1000.01 1000 1000 1000.01 1000.01 1000.01 1000.01 1000.01 1000.01 1000 1000 1000.01 1000 1000 1000 1000 1000 1000 1000 1000 1000 1000 1000 1000 1000 1000 1000 1000 1000 1000 1000 1000 1000 1000 1000 1000 1000 1000 1000 1000 1000 1000.01 1000 1000 1000.01 1000.01 1000.01 1000.01 1000.01 1000.01 1000.01 1000 1000 1000 1000 1000 1000 1000 1000 1000 1000 1000 1000 1000 1000 1000 1000 1000 1000 1000 1000 1000 1000 1000 1000 1000 1000 1000 1000 1000 1000 1000 1000 1000 1000.01 1000.01 1000.01 1000.01 1000.01 1000.01 1000.01 1000.01 1000 1000 1000 1000 1000 1000 1000 1000 1000 1000 1000 1000 1000 1000 1000 1000 1000 1000 1000 1000 1000 1000 1000 1000 1000 1000 1000 1000 1000 1000 1000 1000 1000 1000.01 1000.01 1000.01 1000.01 1000.01 1000.01 1000.01 1000 1000 1000.01 1000 1000 1000 1000 1000 1000 1000 1000 1000 1000 1000 1000 1000 1000 1000 1000 1000 1000 1000 1000 1000 1000 1000 1000 1000 1000 1000 1000 1000 1000.01 1000 1000 1000.01 1000.01 1000.01 1000.01 1000.01 1000.01 1000 1000 1000.01 1000 1000 1000 1000 1000 1000 1000 1000 1000 1000 1000 1000 1000 1000 1000 1000 1000 1000 1000 1000 1000 1000 1000 1000 1000 1000 1000 1000 1000 1000.01 1000 1000 1000.01 1000.01 1000.01 1000.01 1000 1000.01 1000.01 1000 1000 1000 1000 1000 1000 1000 1000 1000 1000 1000 1000 1000 1000 1000 1000 1000 1000 1000 1000 1000 1000 1000 1000 1000 1000 1000 1000 1000 1000 1000 1000 1000 1000.01 1000.01 1000 1000.01 1000.01 1000.01 1000.01 1000 1000 1000.01 1000 1000 1000 1000 1000 1000 1000 1000 1000 1000 1000 1000 1000 1000 1000 1000 1000 1000 1000 1000 1000 1000 1000 1000 1000 1000 1000 1000 1000 1000.01 1000 1000 1000.01 1000.01 1000.01 1000.01 1000.01 1000.01 1000 1000 1000.01 1000 1000 1000 1000 1000 1000 1000 1000 1000 1000 1000 1000 1000 1000 1000 1000 1000 1000 1000 1000 1000 1000 1000 1000 1000 1000 1000 1000 1000 1000.01 1000 1000 1000.01 1000.01 1000.01 1000.01 1000.01 1000.01 1000.01 1000 1000 1000 1000 1000 1000 1000 1000 1000 1000 1000 1000 1000 1000 1000 1000 1000 1000 1000 1000 1000 1000 1000 1000 1000 1000 1000 1000 1000 1000 1000 1000 1000 1000.01 1000.01 1000.01 1000.01 1000.01 1000.01 1000.01 1000.01 1000 1000 1000 1000 1000 1000 1000 1000 1000 1000 1000 1000 1000 1000 1000 1000 1000 1000 1000 1000 1000 1000 1000 1000 1000 1000 1000 1000 1000 1000 1000 1000 1000 1000.01 1000.01 1000.01 1000.01 1000.01 1000.01 1000.01 1000 1000 1000.01 1000 1000 1000 1000 1000 1000 1000 1000 1000 1000 1000 1000 1000 1000 1000 1000 1000 1000 1000 1000 1000 1000 1000 1000 1000 1000 1000 1000 1000 1000.01 1000 1000 1000.01 1000.01 1000.01 1000.01 1000.01 1000.01 1000 1000 1000.01 1000 1000 1000 1000 1000 1000 1000 1000 1000 1000 1000 1000 1000 1000 1000 1000 1000 1000 1000 1000 1000 1000 1000 1000 1000 1000 1000 1000 1000 1000.01 1000 1000 1000.01 1000.01 1000.01 1000.01 1000.01 1000.01 1000.01 1000 1000 1000 1000 1000 1000 1000 1000 1000 1000 1000 1000 1000 1000 1000 1000 1000 1000 1000 1000 1000 1000 1000 1000 1000 1000 1000 1000 1000 1000 1000 1000 1000 1000.01 1000.01 1000.01 1000.01 1000.01 1000.01 1000.01 1000.01 1000 1000 1000 1000 1000 1000 1000 1000 1000 1000.01 1000 1000 1000 1000 1000 1000 1000 1000 1000 1000 1000 1000 1000 1000 1000 1000 1000 1000 1000 1000 1000 1000 1000 1000.01 1000.01 1000.01 1000.01 1000.01 1000.02 1000.01 1000.01 1000.01 1000.01 1000.01 1000.01 1000 1000 1000.01 1000.01 1000.01 1000 1000.01 1000.01 1000.01 1000.01 1000.01 1000 1000.01 1000.01 1000 1000 1000.01 1000.01 1000 1000.01 1000.01 1000 1000 1000.01 1000.01 1000 1000 1000.02 1000.01 1000.01 1000.01 1000.02 1000.02 1000.01 1000.01 1000.01 1000 1000 1000.01 1000 1000 1000 1000 1000 1000 1000 1000 1000 1000 1000 1000 1000 1000 1000 1000 1000 1000 1000 1000 1000 1000 1000 1000 1000 1000 1000 1000 1000 1000.01 1000 1000.01 1000.01 1000.01 1000.01 1000.01 1000.01 1000.01 1000.01 1000.01 1000.01 1000 1000 1000.01 1000.01 1000 1000 1000 1000.01 1000 1000 1000 1000 1000 1000.01 1000 1000 1000.01 1000.01 1000 1000 1000.01 1000 1000 1000.01 1000.01 1000 1000 1000.01 1000.01 1000.01 1000.01 1000.01 1000.01 1000.01 1000.01 1000.01 1000.02 1000.02 1000.01 1000.01 1000.02 1000.01 1000.01 1000.01 1000.01 1000.01 1000.01 1000.01 1000 1000.01 1000.01 1000.01 1000.01 1000.01 1000.01 1000.01 1000.01 1000.01 1000.01 1000.01 1000.01 1000.01 1000.01 1000.01 1000.01 1000.01 1000.01 1000.01 1000.01 1000.01 1000.01 1000.01 1000.01 1000.02 1000.02 1000.01 1000.01 1000.02 1000.01 1000.01 1000.01 1000.02 1000.01 1000.01 1000.01 1000.01 1000.01 1000.01 1000.01 1000.01 1000.01 1000.01 1000.01 1000.01 1000.01 1000 1000.01 1000.01 1000.01 1000.01 1000.01 1000.01 1000 1000.01 1000.01 1000.01 1000.01 1000.01 1000.01 1000.01 1000.01 1000.02 1000.01 1000.01 1000.02 1000.02 1000.01 1000.01 1000.01 1000.02 1000.01 1000.01 1000.01 1000.01 1000.01 1000.01 1000.01 1000.01 1000.01 1000.01 1000.01 1000.01 1000.01 1000.01 1000.01 1000.01 1000.01 1000.01 1000.01 1000.01 1000.01 1000.01 1000.01 1000.01 1000.01 1000.01 1000.01 1000.01 1000.01 1000.01 1000.01 1000.01 1000.02 1000.01 1000.01 1000.01 1000.01 1000.02 1000 1000 1000 1000 1000 1000 1000 1000 1000 1000 1000 1000 1000 1000 1000 1000 1000 1000 1000 1000 1000 1000 1000 1000 1000 1000 1000 1000 1000 1000 1000 1000 1000 1000 1000 1000 1000 1000 1000 1000 1000 1000 1000 1000 1000 1000 1000 1000 1000 1000 1000 1000 1000 1000 1000 1000 1000 1000 1000 1000 1000 1000 1000 1000 1000 1000 1000 1000 1000 1000 1000 1000 1000 1000 1000 1000 1000 1000 1000 1000 1000 1000 1000 1000 1000 1000 1000 1000 1000 1000 1000 1000 1000 1000 1000 1000 1000 1000 1000 1000 1000 1000 1000 1000 1000 1000 1000 1000 1000 1000 1000 1000 1000 1000 1000 1000 1000 1000 1000 1000 1000 1000 1000 1000 1000 1000 1000 1000 1000 1000 1000 1000 1000 1000 1000 1000 1000 1000 1000 1000 1000 1000 1000 1000 1000 1000 1000 1000 1000 1000 1000 1000 1000 1000 1000 1000 1000 1000 1000 1000 1000 1000 1000 1000 1000 1000 1000 1000 1000 1000 1000 1000 1000 1000 1000 1000 1000 1000 1000 1000 1000 1000 1000 1000 1000 1000 1000 1000 1000 1000 1000 1000 1000 1000 1000 1000 1000 1000 1000 1000 1000 1000 1000 1000 1000 1000 1000 1000 1000 1000 1000 1000 1000 1000 1000 1000 1000 1000 1000 1000 1000 1000 1000 1000 1000 1000 1000 1000 1000 1000 1000 1000 1000 1000 1000 1000 1000 1000 1000 1000 1000 1000 1000 1000 1000 1000 1000 1000 1000 1000 1000 1000 1000 1000 1000 1000 1000 1000 1000 1000 1000 1000 1000 1000 1000 1000 1000 1000 1000 1000 1000 1000 1000 1000 1000 1000 1000 1000 1000 1000 1000 1000 1000 1000 1000 1000 1000 1000 1000 1000 1000 1000 1000 1000 1000 1000 1000 1000 1000 1000 1000 1000 1000 1000 1000 1000 1000 1000 1000 1000 1000 1000 1000 1000 1000 1000 1000 1000 1000 1000 1000 1000 1000 1000 1000 1000 1000 1000 
</DataArray>
<DataArray type="Float32" Name="Velocity" NumberOfComponents="3" format="ascii">
0.0043227477 0.0059657502 0
4.959296e-05 0.0058415052 0
-0.00025205617 0.005333981 0
0.0002106211 0.0046981941 0
8.333569e-05 0.003954011 0
0.00016529582 0.0028891989 0
9.4510222e-07 0.0040051974 0
3.801112e-07 0.0040051299 0
1.6460133e-06 0.0028931126 0
2.0845414e-06 0.0028917249 0
-5.8668775e-07 0.0040051267 0
2.3843069e-07 0.0040051406 0
-8.0159467e-08 0.0040051332 0
2.7219105e-10 0.0049091987 0
-1.1788729e-06 0.0040051364 0
-9.9059804e-08 0.0040051416 0
-8.477403e-08 0.0040051411 0
-2.8047066e-07 0.0040051462 0
1.076202e-06 0.0040051257 0
1.3020435e-06 0.0028735371 0
3.9302026e-07 0.0040051402 0
-4.5434774e-08 0.0040051453 0
1.6528706e-07 0.0028846532 0
-1.1587137e-07 0.0028846608 0
-9.9781033e-08 0.0040051425 0
-3.9899592e-07 0.0040051392 0
2.9114108e-10 0.0028736205 0
3.9899592e-07 0.0040051392 0
9.9780976e-08 0.0040051425 0
1.3993748e-07 0.0028846608 0
-1.0567455e-06 0.0028844704 0
-2.7160786e-07 0.0040051425 0
2.7395845e-07 0.0040051425 0
-7.0238707e-06 0.0028846271 0
-6.3797638e-06 0.002884584 0
-0.00019598192 0.0039719618 0
-9.5052579e-05 0.0039046751 0
-0.00012855035 0.0029304088 0
-0.0010199809 0.0040848805 0
-4.9607432e-05 0.0038338467 0
-0.0045922846 0.0044418513 0
0.0041832398 0.0011771593 0
0.00072497089 0.0012554482 0
0.00015906876 0.00057351752 0
0.00010788482 0.00072716473 0
0.00025595404 0.00090543693 0
7.8378514e-05 0.00067524839 0
1.2258701e-05 0.0011187779 0
1.2104826e-05 0.0011188223 0
-9.2265742e-07 0.00089442794 0
-1.3986231e-07 0.00089429429 0
3.6960712e-06 0.001118867 0
2.8247389e-06 0.0011189778 0
6.2743502e-06 0.0011191281 0
-6.8572075e-07 0.0013998719 0
-2.881497e-06 0.0011189883 0
1.1861925e-06 0.0011191065 0
3.8827761e-06 0.0011191284 0
3.7254927e-06 0.0011191118 0
4.542957e-06 0.0011190209 0
-1.0458687e-08 0.00075897324 0
-1.2967811e-06 0.0011190145 0
-7.1056178e-07 0.0011189349 0
-1.3738271e-06 0.00089399552 0
1.3126779e-06 0.00089399621 0
1.1659705e-06 0.0011189878 0
2.1669425e-06 0.0011189786 0
2.1210404e-08 0.00075884612 0
-3.8309718e-06 0.0011189939 0
-2.4042081e-06 0.0011189736 0
-8.1214449e-07 0.0008939851 0
2.0862824e-06 0.00089398684 0
-8.0287509e-06 0.0011188718 0
-5.4553238e-06 0.0011188344 0
-5.4038755e-06 0.00089327409 0
-6.9623238e-06 0.00089263584 0
-0.00020565324 0.0010877772 0
-0.00012506514 0.0010978339 0
-0.00021027512 0.00061266671 0
-0.0004459137 0.00040925003 0
-0.000596078 0.00060636667 0
-0.0038018767 -1.5497526e-05 0
0.0035179083 0.00061836361 0
0.00032734298 0.00035030331 0
0.00069962995 0.00011393152 0
0.00032544456 0.00010854196 0
0.00016891402 -0.00010002464 0
0.00016812429 8.4414562e-05 0
9.1893653e-06 0.000136224 0
2.0895641e-06 0.0001357013 0
2.1177477e-06 0.00019025763 0
4.6354776e-06 0.00019080887 0
4.4403837e-06 0.00013536637 0
-3.5051974e-06 0.00013475178 0
-1.8096571e-06 0.00013448742 0
-8.7945966e-07 9.1614871e-05 0
7.4145796e-09 0.00013469256 0
-4.1727048e-07 0.00013477991 0
3.885295e-06 0.00013475923 0
-1.1264873e-07 0.00013476828 0
2.8699562e-06 0.00013468687 0
-1.3048083e-06 0.00015699559 0
2.1493993e-06 0.00013478051 0
-3.2730452e-06 0.00013477603 0
1.188899e-06 0.00019129238 0
-1.3166667e-06 0.00019132026 0
3.021725e-06 0.00013477603 0
-5.0380304e-06 0.00013486538 0
-3.026855e-06 0.00015662123 0
-2.295892e-06 0.00013495743 0
-1.9991351e-06 0.00013507612 0
-2.5074894e-07 0.00019103437 0
1.1619125e-06 0.00019096179 0
-8.2991988e-07 0.0001351486 0
-7.5124626e-06 0.00013553859 0
-4.6101677e-06 0.00019062166 0
-2.0338452e-05 0.00018995842 0
-0.00013107156 9.6008618e-05 0
-0.00010316379 8.4542597e-05 0
-0.00030146725 0.00017508573 0
-0.00041228565 0.00042984812 0
-0.00033773779 0.0005178139 0
-0.0039193681 0.00091303635 0
0.0040400694 0.00041943113 0
0.00084217614 0.00036720742 0
0.00049459026 0.00032291119 0
0.00011372923 0.00013460769 0
2.2248752e-05 0.0002258795 0
0.00013545272 0.00012087615 0
3.1262982e-05 0.00012564272 0
-1.1297179e-06 0.0001255837 0
5.0804124e-07 0.00012477928 0
2.5827233e-06 0.00012478515 0
5.7018569e-06 0.00012538118 0
1.2381713e-06 0.00012498819 0
9.7011275e-07 0.00012487597 0
-3.7806936e-07 0.00017002237 0
-3.3927336e-07 0.00012487195 0
-4.4198276e-07 0.00012489998 0
2.9481433e-07 0.00012490008 0
2.6608953e-07 0.00012489916 0
5.7054706e-07 0.00012514924 0
8.6227942e-07 0.00011631317 0
-3.0009805e-06 0.00012514934 0
-1.4003758e-06 0.00012532085 0
9.8667886e-07 0.00012474673 0
-5.4996832e-07 0.00012475684 0
1.9060827e-06 0.00012525696 0
2.3247551e-06 0.00012514608 0
2.0605915e-09 0.00011643764 0
-2.3140333e-06 0.00012514644 0
-1.8922675e-06 0.00012525851 0
5.7137908e-07 0.00012475486 0
-8.1970956e-07 0.00012491096 0
2.4029953e-06 0.00012537109 0
-9.0218018e-06 0.00012553978 0
-1.3338516e-05 0.00012496526 0
-8.8825418e-06 0.0001244154 0
-0.0001182015 0.00013692772 0
-0.00012930877 0.00013693648 0
-0.00020997658 0.00021656709 0
-0.00011264866 0.00031710792 0
-0.00098775025 0.00011402812 0
-0.0040456313 0.00030402408 0
0.0041542207 0.000518949 0
0.00099443237 0.00011617261 0
0.00024339826 0.00013433526 0
0.00015179164 7.7784753e-05 0
8.4826446e-05 7.1260714e-05 0
8.0422207e-05 4.2363456e-05 0
1.0082206e-05 7.5152362e-05 0
4.9862811e-06 7.4914031e-05 0
2.8770373e-06 3.0314073e-05 0
1.3320508e-07 3.0197125e-05 0
-8.9653741e-07 7.4828211e-05 0
-7.3126512e-07 7.4826014e-05 0
2.0690443e-07 7.4721946e-05 0
-1.9340021e-07 7.6703072e-05 0
-3.6703264e-07 7.4718824e-05 0
1.4045851e-07 7.4754877e-05 0
1.5376698e-07 7.4754054e-05 0
3.6713067e-07 7.4754251e-05 0
1.0661652e-06 7.4819487e-05 0
5.3580357e-07 2.9354549e-05 0
1.0640105e-07 7.4794036e-05 0
8.8926976e-07 7.4834927e-05 0
-5.2589979e-07 2.9589291e-05 0
5.2587018e-07 2.9589371e-05 0
-2.2786513e-07 7.4797907e-05 0
-1.2375099e-09 7.4791489e-05 0
1.4352963e-15 2.9385279e-05 0
1.2361381e-09 7.4791489e-05 0
2.2786513e-07 7.4797907e-05 0
-5.259144e-07 2.9589362e-05 0
5.2914163e-07 2.9589048e-05 0
-3.7438269e-07 7.4794756e-05 0
3.7530992e-07 7.4821284e-05 0
-5.9857155e-07 2.9590719e-05 0
-2.1601883e-05 2.8775117e-05 0
-0.00017997011 2.0896492e-05 0
-6.0230595e-05 0.00014705682 0
-0.00013908949 6.4668748e-05 0
-0.00011965281 7.3273004e-05 0
-0.0011065409 0.00018976557 0
-0.0038236575 0.00023489396 0
0.0029741719 0.00016278878 0
0.00074980251 0.00014096704 0
0.00030532246 6.7740963e-05 0
9.9129997e-05 8.6081753e-05 0
8.0627389e-05 0.00013446053 0
1.1554126e-05 1.6085505e-05 0
1.7977761e-06 0.00010249201 0
3.3807089e-06 0.00010240726 0
2.2795221e-06 7.3809611e-07 0
-1.3680756e-06 7.2910501e-07 0
7.2959423e-08 0.00010239914 0
-8.5977256e-08 0.00010240189 0
8.7346626e-07 0.00010240166 0
-6.8077696e-12 6.854329e-05 0
-8.486133e-07 0.00010240158 0
-2.1422211e-07 0.00010240184 0
-3.9778709e-07 0.00010240199 0
-5.3604583e-07 0.0001024018 0
5.891311e-07 0.0001023986 0
6.4545907e-07 6.7325971e-07 0
7.560742e-07 0.00010240659 0
2.2815402e-07 0.00010240177 0
9.1592682e-07 6.8966108e-07 0
-9.159732e-07 6.8966227e-07 0
-1.7453851e-07 0.00010240133 0
3.9669423e-08 0.00010240283 0
3.1839422e-15 6.8044523e-07 0
-3.9669423e-08 0.00010240283 0
1.7453851e-07 0.00010240133 0
9.159732e-07 6.8966227e-07 0
-9.1598434e-07 6.8966261e-07 0
3.4696791e-07 0.00010240091 0
-3.4696791e-07 0.00010240098 0
1.8127906e-07 6.8966739e-07 0
-3.6178932e-05 -1.6168485e-06 0
-3.4580385e-06 0.00020073156 0
-8.8560819e-06 0.00015995131 0
-0.000166126 4.7219102e-05 0
-0.00017927338 0.00014524175 0
-0.00084955135 0.00012838356 0
-0.0029096012 6.944187e-05 0
0.0039573316 1.2900564e-05 0
0.0012341406 3.8143269e-05 0
0.00024291918 7.9934893e-05 0
0.00011958573 0.00014124422 0
0.00013658141 1.240047e-05 0
0.00013109352 -1.0603609e-05 0
7.1975592e-06 6.7729638e-06 0
1.9393575e-08 6.771711e-06 0
-4.7619803e-14 -4.2546855e-09 0
4.4706433e-14 -4.2520854e-09 0
-9.010928e-09 6.7717028e-06 0
4.2059423e-09 6.7717096e-06 0
-1.4060191e-07 6.7716378e-06 0
0 8.7251166e-05 0
1.4066947e-07 6.7716405e-06 0
-3.9948778e-09 6.771711e-06 0
9.843518e-09 6.7717101e-06 0
-1.0123335e-08 6.7717142e-06 0
8.9285503e-09 6.7717019e-06 0
-1.2324384e-14 -4.3109383e-09 0
-1.0034293e-08 6.7717192e-06 0
9.3522265e-09 6.7717151e-06 0
-4.0144771e-14 -4.2977315e-09 0