<?xml version="1.0" ?>

<VTKFile type="UnstructuredGrid" version="0.1" byte_order="BigEndian">

<UnstructuredGrid>

<Piece NumberOfPoints= " 2009 " NumberOfCells=" 2009 ">

<PointData Scalars="Pressure" Vectors="Velocity">

<DataArray type="Float32" Name="Pressure" format="ascii">

7.51037 21.4592 22.6396 13.8408 8.58331 10.6219 7.0812 7.0812 11.373 11.373 7.0812 7.0812 7.0812 7.40308 7.0812 7.0812 7.0812 7.0812 7.0812 10.6219 7.0812 7.0812 11.373 11.373 7.0812 7.0812 10.6219 7.0812 7.0812 11.373 11.373 7.0812 7.0812 11.373 11.373 7.0812 11.1584 22.6396 13.9481 13.197 16.416 21.4592 17.1671 16.7379 18.4547 7.29579 6.43744 6.54473 6.54473 6.97391 6.97391 6.54473 6.54473 6.54473 7.93955 6.54473 6.54473 6.54473 6.54473 6.54473 6.43744 6.54473 6.54473 6.97391 6.97391 6.54473 6.54473 6.43744 6.54473 6.54473 6.97391 6.97391 6.54473 6.54473 6.97391 6.97391 6.54473 7.18849 18.6693 13.4116 11.5876 19.2058 21.5665 15.9868 19.4205 21.2446 6.54473 9.87085 5.5791 5.5791 10.6219 10.6219 5.5791 5.5791 5.5791 7.72496 5.5791 5.5791 5.5791 5.5791 5.5791 9.87085 5.5791 5.5791 10.6219 10.6219 5.5791 5.5791 9.87085 5.5791 5.5791 10.6219 10.6219 5.5791 5.5791 10.7292 10.6219 5.5791 6.00827 21.6738 13.197 11.6949 20.4935 10.9438 6.22285 4.72076 8.58331 8.04684 0.429154 6.22285 6.22285 0.429154 0.429154 6.22285 6.22285 6.22285 0.643732 6.22285 6.22285 6.22285 6.22285 6.22285 0.429154 6.22285 6.22285 0.429154 0.429154 6.22285 6.22285 0.429154 6.22285 6.22285 0.429154 0.429154 6.22285 6.22285 0.429154 0.429154 6.22285 9.76356 12.6606 15.6649 17.3817 14.8065 12.8752 10.1927 8.36873 12.9825 2.89681 0 1.50204 1.50204 0 0 1.50204 1.50204 1.50204 7.0812 1.50204 1.50204 1.50204 1.50204 1.50204 0 1.50204 1.50204 0 0 1.50204 1.50204 0 1.50204 1.50204 0 0 1.50204 1.50204 0 0 1.50204 3.75514 8.04684 6.97391 7.51037 9.33438 19.3131 18.2401 18.8839 5.79368 1.50204 0 0 0 0 0 0 0 0 0.536443 0 0 0 0 0 0 0 0 0 0 0 0 0 0 0 0 0 0 0 0 0 0 0 0.429154 10.7292 6.97391 11.6949 7.29579 6.54473 5.5791 6.22285 1.50204 0 0 0 0 0 0 0 0 0 0 0 0 0 0 0 0 0 0 0 0 0 0 0 0 0 0 0 0 0 0 0 1.50204 6.22285 5.5791 6.54473 7.0812 7.0812 6.54473 5.5791 6.22285 1.50204 0 0 0 0 0 0 0 0 0 0 0 0 0 0 0 0 0 0 0 0 0 0 0 0 0 0 0 0 0 0 0 1.50204 6.22285 5.5791 6.54473 7.0812 11.373 6.97391 10.6219 0.429154 0 0 0 0 0 0 0 0 0 0 0 0 0 0 0 0 0 0 0 0 0 0 0 0 0 0 0 0 0 0 0 0 0 0.429154 10.6219 6.97391 11.373 11.373 6.97391 10.6219 0.429154 0 0 0 0 0 0 0 0 0 0 0 0 0 0 0 0 0 0 0 0 0 0 0 0 0 0 0 0 0 0 0 0 0 0.429154 10.6219 6.97391 11.373 7.0812 6.54473 5.5791 6.22285 1.50204 0 0 0 0 0 0 0 0 0 0 0 0 0 0 0 0 0 0 0 0 0 0 0 0 0 0 0 0 0 0 0 1.50204 6.22285 5.5791 6.54473 7.0812 7.0812 6.54473 5.5791 6.22285 1.50204 0 0 0 0 0 0 0 0 0 0 0 0 0 0 0 0 0 0 0 0 0 0 0 0 0 0 0 0 0 0 0 1.50204 6.22285 5.5791 6.54473 7.0812 7.0812 6.54473 5.5791 6.22285 1.50204 0 0 0 0 0 0 0 0 0 0 0 0 0 0 0 0 0 0 0 0 0 0 0 0 0 0 0 0 0 0 0 1.50204 6.22285 5.5791 6.54473 7.0812 7.40308 7.93955 7.72496 0.643732 7.0812 0.536443 0 0 0 0 0 0 0 0 0 0 0 0 0 0 0 0 0 0 0 0 0 0 0 0 0 0 0 0 0 0.536443 7.0812 0.643732 7.72496 7.93955 7.40308 7.0812 6.54473 5.5791 6.22285 1.50204 0 0 0 0 0 0 0 0 0 0 0 0 0 0 0 0 0 0 0 0 0 0 0 0 0 0 0 0 0 0 0 1.50204 6.22285 5.5791 6.54473 7.0812 7.0812 6.54473 5.5791 6.22285 1.50204 0 0 0 0 0 0 0 0 0 0 0 0 0 0 0 0 0 0 0 0 0 0 0 0 0 0 0 0 0 0 0 1.50204 6.22285 5.5791 6.54473 7.0812 7.0812 6.54473 5.5791 6.22285 1.50204 0 0 0 0 0 0 0 0 0 0 0 0 0 0 0 0 0 0 0 0 0 0 0 0 0 0 0 0 0 0 0 1.50204 6.22285 5.5791 6.54473 7.0812 7.0812 6.54473 5.5791 6.22285 1.50204 0 0 0 0 0 0 0 0 0 0 0 0 0 0 0 0 0 0 0 0 0 0 0 0 0 0 0 0 0 0 0 1.50204 6.22285 5.5791 6.54473 7.0812 7.0812 6.54473 5.5791 6.22285 1.50204 0 0 0 0 0 0 0 0 0 0 0 0 0 0 0 0 0 0 0 0 0 0 0 0 0 0 0 0 0 0 0 1.50204 6.22285 5.5791 6.54473 7.0812 10.6219 6.43744 9.87085 0.429154 0 0 0 0 0 0 0 0 0 0 0 0 0 0 0 0 0 0 0 0 0 0 0 0 0 0 0 0 0 0 0 0 0 0.429154 9.87085 6.43744 10.6219 7.0812 6.54473 5.5791 6.22285 1.50204 0 0 0 0 0 0 0 0 0 0 0 0 0 0 0 0 0 0 0 0 0 0 0 0 0 0 0 0 0 0 0 1.50204 6.22285 5.5791 6.54473 7.0812 7.0812 6.54473 5.5791 6.22285 1.50204 0 0 0 0 0 0 0 0 0 0 0 0 0 0 0 0 0 0 0 0 0 0 0 0 0 0 0 0 0 0 0 1.50204 6.22285 5.5791 6.54473 7.0812 11.373 6.97391 10.6219 0.429154 0 0 0 0 0 0 0 0 0 0 0 0 0 0 0 0 0 0 0 0 0 0 0 0 0 0 0 0 0 0 0 0 0 0.429154 10.6219 6.97391 11.373 11.373 6.97391 10.6219 0.429154 0 0 0 0 0 0 0 0 0 0 0 0 0 0 0 0 0 0 0 0 0 0 0 0 0 0 0 0 0 0 0 0 0 0.429154 10.6219 6.97391 11.373 7.0812 6.54473 5.5791 6.22285 1.50204 0 0 0 0 0 0 0 0 0 0 0 0 0 0 0 0 0 0 0 0 0 0 0 0 0 0 0 0 0 0 0 1.50204 6.22285 5.5791 6.54473 7.0812 7.0812 6.54473 5.5791 6.22285 1.50204 0 0 0 0 0 0 0 0 0 0 0 0 0 0 0 0 0 0 0 0 0 0 0 0 0 0 0 0 0 0 0 1.50204 6.22285 5.5791 6.54473 7.0812 10.6219 6.43744 9.87085 0.429154 0 0 0 0 0 0 0 0 0 0 0 0 0 0 0 0 0 0 0 0 0 0 0 0 0 0 0 0 0 0 0 0 0 0.429154 9.87085 6.43744 10.6219 7.0812 6.54473 5.5791 6.22285 1.50204 0 0 0 0 0 0 0 0 0 0 0 0 0 0 0 0 0 0 0 0 0 0 0 0 0 0 0 0 0 0 0 1.50204 6.22285 5.5791 6.54473 7.0812 7.0812 6.54473 5.5791 6.22285 1.50204 0 0 0 0 0 0 0 0 0 0 0 0 0 0 0 0 0 0 0 0 0 0 0 0 0 0 0 0 0 0 0 1.50204 6.22285 5.5791 6.54473 7.0812 11.373 6.97391 10.6219 0.429154 0 0 0 0 0 0 0 0 0 0 0 0 0 0 0 0 0 0 0 0 0 0 0 0 0 0 0 0 0 0 0 0 0 0.429154 10.6219 6.97391 11.373 11.373 6.97391 10.6219 0.429154 0 0 0 0 0 0 0 0 0 0 0 0 0 0 0 0 0 0 0 0 0 0 0 0 0 0 0 0 0 0 0 0 0 0.429154 10.6219 6.97391 11.373 7.0812 6.54473 5.5791 6.22285 1.50204 0 0 0 0 0 0 0 0 0 0 0 0 0 0 0 0 0 0 0 0 0 0 0 0 0 0 0 0 0 0 0 1.50204 6.22285 5.5791 6.54473 7.0812 7.0812 6.54473 5.5791 6.22285 1.50204 0 0 0 0 0 0 0 0 0 0 0 0 0 0 0 0 0 0 0 0 0 0 0 0 0 0 0 0 0 0 0 1.50204 6.22285 5.5791 6.54473 7.0812 11.373 6.97391 10.7292 0.429154 0 0 0 0 0 0 0 0 0 0 0 0 0 0 0 0 0 0 0 0 0 0 0 0 0 0 0 0 0 0 0 0 0 0.429154 10.6219 6.97391 11.373 11.373 6.97391 10.6219 0.429154 0 0 0 0 0 0 0 0 0 0 0 0 0 0 0 0 0 0 0 0 0 0 0 0 0 0 0 0 0 0 0 0 0 0.429154 10.6219 6.97391 11.373 7.0812 6.54473 5.5791 6.22285 1.50204 0 0 0 0 0 0 0 0 0.536443 0 0 0 0 0 0 0 0 0 0 0 0 0 0 0 0 0 0 0 0 0 0 1.50204 6.22285 5.5791 6.54473 7.0812 11.1584 7.18849 6.00827 9.76356 3.75514 0 1.50204 1.50204 0 0 1.50204 1.50204 1.50204 7.0812 1.50204 1.50204 1.50204 1.50204 1.50204 0 1.50204 1.50204 0 0 1.50204 1.50204 0 1.50204 1.50204 0 0 1.50204 1.50204 0 0 1.50204 3.75514 8.26143 6.75932 7.51037 9.44167 22.6396 18.6693 21.6738 12.6606 8.04684 0.429154 6.22285 6.22285 0.429154 0.429154 6.22285 6.22285 6.22285 0.643732 6.22285 6.22285 6.22285 6.22285 6.22285 0.429154 6.22285 6.22285 0.429154 0.429154 6.22285 6.22285 0.429154 6.22285 6.22285 0.429154 0.429154 6.22285 6.22285 0.429154 0.429154 6.22285 8.26143 6.75932 20.7081 18.0255 21.6738 13.9481 13.4116 13.197 15.6649 6.97391 10.7292 5.5791 5.5791 10.6219 10.6219 5.5791 5.5791 5.5791 7.72496 5.5791 5.5791 5.5791 5.5791 5.5791 9.87085 5.5791 5.5791 10.6219 10.6219 5.5791 5.5791 9.87085 5.5791 5.5791 10.6219 10.6219 5.5791 5.5791 10.6219 10.6219 5.5791 6.75932 20.7081 13.6262 13.3043 17.2744 13.197 11.5876 11.6949 17.3817 7.51037 6.97391 6.54473 6.54473 6.97391 6.97391 6.54473 6.54473 6.54473 7.93955 6.54473 6.54473 6.54473 6.54473 6.54473 6.43744 6.54473 6.54473 6.97391 6.97391 6.54473 6.54473 6.43744 6.54473 6.54473 6.97391 6.97391 6.54473 6.54473 6.97391 6.97391 6.54473 7.51037 18.0255 13.3043 11.5876 18.8839 16.416 19.2058 20.4935 14.8065 9.33438 11.6949 7.0812 7.0812 11.373 11.373 7.0812 7.0812 7.0812 7.40308 7.0812 7.0812 7.0812 7.0812 7.0812 10.6219 7.0812 7.0812 11.373 11.373 7.0812 7.0812 10.6219 7.0812 7.0812 11.373 11.373 7.0812 7.0812 11.373 11.373 7.0812 9.44167 21.6738 17.2744 18.8839 12.0168 0.1 0.1 0.1 0.1 0.1 0.1 0.1 0.1 0.1 0.1 0.1 0.1 0.1 0.1 0.1 0.1 0.1 0.1 0.1 0.1 0.1 0.1 0.1 0.1 0.1 0.1 0.1 0.1 0.1 0.1 0.1 0.1 0.1 0.1 0.1 0.1 0.1 0.1 0.1 0.1 0.1 0.1 0.1 0.1 0.1 0.1 0.1 0.1 0.1 0.1 0.1 0.1 0.1 0.1 0.1 0.1 0.1 0.1 0.1 0.1 0.1 0.1 0.1 0.1 0.1 0.1 0.1 0.1 0.1 0.1 0.1 0.1 0.1 0.1 0.1 0.1 0.1 0.1 0.1 0.1 0.1 0.1 0.1 0.1 0.1 0.1 0.1 0.1 0.1 0.1 0.1 0.1 0.1 0.1 0.1 0.1 0.1 0.1 0.1 0.1 0.1 0.1 0.1 0.1 0.1 0.1 0.1 0.1 0.1 0.1 0.1 0.1 0.1 0.1 0.1 0.1 0.1 0.1 0.1 0.1 0.1 0.1 0.1 0.1 0.1 0.1 0.1 0.1 0.1 0.1 0.1 0.1 0.1 0.1 0.1 0.1 0.1 0.1 0.1 0.1 0.1 0.1 0.1 0.1 0.1 0.1 0.1 0.1 0.1 0.1 0.1 0.1 0.1 0.1 0.1 0.1 0.1 0.1 0.1 0.1 0.1 0.1 0.1 0.1 0.1 0.1 0.1 0.1 0.1 0.1 0.1 0.1 0.1 0.1 0.1 0.1 0.1 0.1 0.1 0.1 0.1 0.1 0.1 0.1 0.1 0.1 0.1 0.1 0.1 0.1 0.1 0.1 0.1 0.1 0.1 0.1 0.1 0.1 0.1 0.1 0.1 0.1 0.1 0.1 0.1 0.1 0.1 0.1 0.1 0.1 0.1 0.1 0.1 0.1 0.1 0.1 0.1 0.1 0.1 0.1 0.1 0.1 0.1 0.1 0.1 0.1 0.1 0.1 0.1 0.1 0.1 0.1 0.1 0.1 0.1 0.1 0.1 0.1 0.1 0.1 0.1 0.1 0.1 0.1 0.1 0.1 0.1 0.1 0.1 0.1 0.1 0.1 0.1 0.1 0.1 0.1 0.1 0.1 0.1 0.1 0.1 0.1 0.1 0.1 0.1 0.1 0.1 0.1 0.1 0.1 0.1 0.1 0.1 0.1 0.1 0.1 0.1 0.1 0.1 0.1 0.1 0.1 0.1 0.1 0.1 0.1 0.1 0.1 0.1 0.1 0.1 0.1 0.1 0.1 0.1 0.1 0.1 0.1 0.1 0.1 0.1 0.1 0.1 0.1 0.1 0.1 0.1 0.1 0.1 0.1 0.1 0.1 0.1 0.1 0.1 0.1 0.1 0.1 0.1 0.1 0.1 0.1 0.1 0.1 0.1 0.1 0.1 0.1 
</DataArray>

<DataArray type="Float32" Name="Density" format="ascii">
1000.01 1000.02 1000.03 1000.02 1000.01 1000.01 1000.01 1000.01 1000.01 1000.01 1000.01 1000.01 1000.01 1000.01 1000.01 1000.01 1000.01 1000.01 1000.01 1000.01 1000.01 1000.01 1000.01 1000.01 1000.01 1000.01 1000.01 1000.01 1000.01 1000.01 1000.01 1000.01 1000.01 1000.01 1000.01 1000.01 1000.01 1000.03 1000.02 1000.01 1000.02 1000.02 1000.02 1000.02 1000.02 1000.01 1000.01 1000.01 1000.01 1000.01 1000.01 1000.01 1000.01 1000.01 1000.01 1000.01 1000.01 1000.01 1000.01 1000.01 1000.01 1000.01 1000.01 1000.01 1000.01 1000.01 1000.01 1000.01 1000.01 1000.01 1000.01 1000.01 1000.01 1000.01 1000.01 1000.01 1000.01 1000.01 1000.02 1000.01 1000.01 1000.02 1000.02 1000.02 1000.02 1000.02 1000.01 1000.01 1000.01 1000.01 1000.01 1000.01 1000.01 1000.01 1000.01 1000.01 1000.01 1000.01 1000.01 1000.01 1000.01 1000.01 1000.01 1000.01 1000.01 1000.01 1000.01 1000.01 1000.01 1000.01 1000.01 1000.01 1000.01 1000.01 1000.01 1000.01 1000.01 1000.01 1000.01 1000.02 1000.01 1000.01 1000.02 1000.01 1000.01 1000.01 1000.01 1000.01 1000 1000.01 1000.01 1000 1000 1000.01 1000.01 1000.01 1000 1000.01 1000.01 1000.01 1000.01 1000.01 1000 1000.01 1000.01 1000 1000 1000.01 1000.01 1000 1000.01 1000.01 1000 1000 1000.01 1000.01 1000 1000 1000.01 1000.01 1000.01 1000.02 1000.02 1000.02 1000.01 1000.01 1000.01 1000.01 1000 1000 1000 1000 1000 1000 1000 1000 1000 1000.01 1000 1000 1000 1000 1000 1000 1000 1000 1000 1000 1000 1000 1000 1000 1000 1000 1000 1000 1000 1000 1000 1000 1000 1000.01 1000.01 1000.01 1000.01 1000.02 1000.02 1000.02 1000.01 1000 1000 1000 1000 1000 1000 1000 1000 1000 1000 1000 1000 1000 1000 1000 1000 1000 1000 1000 1000 1000 1000 1000 1000 1000 1000 1000 1000 1000 1000 1000 1000 1000 1000 1000.01 1000.01 1000.01 1000.01 1000.01 1000.01 1000.01 1000 1000 1000 1000 1000 1000 1000 1000 1000 1000 1000 1000 1000 1000 1000 1000 1000 1000 1000 1000 1000 1000 1000 1000 1000 1000 1000 1000 1000 1000 1000 1000 1000 1000.01 1000.01 1000.01 1000.01 1000.01 1000.01 1000.01 1000.01 1000 1000 1000 1000 1000 1000 1000 1000 1000 1000 1000 1000 1000 1000 1000 1000 1000 1000 1000 1000 1000 1000 1000 1000 1000 1000 1000 1000 1000 1000 1000 1000 1000 1000.01 1000.01 1000.01 1000.01 1000.01 1000.01 1000.01 1000 1000 1000 1000 1000 1000 1000 1000 1000 1000 1000 1000 1000 1000 1000 1000 1000 1000 1000 1000 1000 1000 1000 1000 1000 1000 1000 1000 1000 1000 1000 1000 1000 1000 1000 1000.01 1000.01 1000.01 1000.01 1000.01 1000.01 1000 1000 1000 1000 1000 1000 1000 1000 1000 1000 1000 1000 1000 1000 1000 1000 1000 1000 1000 1000 1000 1000 1000 1000 1000 1000 1000 1000 1000 1000 1000 1000 1000 1000 1000 1000.01 1000.01 1000.01 1000.01 1000.01 1000.01 1000.01 1000 1000 1000 1000 1000 1000 1000 1000 1000 1000 1000 1000 1000 1000 1000 1000 1000 1000 1000 1000 1000 1000 1000 1000 1000 1000 1000 1000 1000 1000 1000 1000 1000 1000.01 1000.01 1000.01 1000.01 1000.01 1000.01 1000.01 1000.01 1000 1000 1000 1000 1000 1000 1000 1000 1000 1000 1000 1000 1000 1000 1000 1000 1000 1000 1000 1000 1000 1000 1000 1000 1000 1000 1000 1000 1000 1000 1000 1000 1000 1000.01 1000.01 1000.01 1000.01 1000.01 1000.01 1000.01 1000.01 1000 1000 1000 1000 1000 1000 1000 1000 1000 1000 1000 1000 1000 1000 1000 1000 1000 1000 1000 1000 1000 1000 1000 1000 1000 1000 1000 1000 1000 1000 1000 1000 1000 1000.01 1000.01 1000.01 1000.01 1000.01 1000.01 1000.01 1000 1000.01 1000 1000 1000 1000 1000 1000 1000 1000 1000 1000 1000 1000 1000 1000 1000 1000 1000 1000 1000 1000 1000 1000 1000 1000 1000 1000 1000 1000 1000 1000 1000 1000.01 1000 1000.01 1000.01 1000.01 1000.01 1000.01 1000.01 1000.01 1000 1000 1000 1000 1000 1000 1000 1000 1000 1000 1000 1000 1000 1000 1000 1000 1000 1000 1000 1000 1000 1000 1000 1000 1000 1000 1000 1000 1000 1000 1000 1000 1000 1000.01 1000.01 1000.01 1000.01 1000.01 1000.01 1000.01 1000.01 1000 1000 1000 1000 1000 1000 1000 1000 1000 1000 1000 1000 1000 1000 1000 1000 1000 1000 1000 1000 1000 1000 1000 1000 1000 1000 1000 1000 1000 1000 1000 1000 1000 1000.01 1000.01 1000.01 1000.01 1000.01 1000.01 1000.01 1000.01 1000 1000 1000 1000 1000 1000 1000 1000 1000 1000 1000 1000 1000 1000 1000 1000 1000 1000 1000 1000 1000 1000 1000 1000 1000 1000 1000 1000 1000 1000 1000 1000 1000 1000.01 1000.01 1000.01 1000.01 1000.01 1000.01 1000.01 1000.01 1000 1000 1000 1000 1000 1000 1000 1000 1000 1000 1000 1000 1000 1000 1000 1000 1000 1000 1000 1000 1000 1000 1000 1000 1000 1000 1000 1000 1000 1000 1000 1000 1000 1000.01 1000.01 1000.01 1000.01 1000.01 1000.01 1000.01 1000.01 1000 1000 1000 1000 1000 1000 1000 1000 1000 1000 1000 1000 1000 1000 1000 1000 1000 1000 1000 1000 1000 1000 1000 1000 1000 1000 1000 1000 1000 1000 1000 1000 1000 1000.01 1000.01 1000.01 1000.01 1000.01 1000.01 1000.01 1000 1000 1000 1000 1000 1000 1000 1000 1000 1000 1000 1000 1000 1000 1000 1000 1000 1000 1000 1000 1000 1000 1000 1000 1000 1000 1000 1000 1000 1000 1000 1000 1000 1000 1000 1000.01 1000.01 1000.01 1000.01 1000.01 1000.01 1000.01 1000 1000 1000 1000 1000 1000 1000 1000 1000 1000 1000 1000 1000 1000 1000 1000 1000 1000 1000 1000 1000 1000 1000 1000 1000 1000 1000 1000 1000 1000 1000 1000 1000 1000.01 1000.01 1000.01 1000.01 1000.01 1000.01 1000.01 1000.01 1000 1000 1000 1000 1000 1000 1000 1000 1000 1000 1000 1000 1000 1000 1000 1000 1000 1000 1000 1000 1000 1000 1000 1000 1000 1000 1000 1000 1000 1000 1000 1000 1000 1000.01 1000.01 1000.01 1000.01 1000.01 1000.01 1000.01 1000 1000 1000 1000 1000 1000 1000 1000 1000 1000 1000 1000 1000 1000 1000 1000 1000 1000 1000 1000 1000 1000 1000 1000 1000 1000 1000 1000 1000 1000 1000 1000 1000 1000 1000 1000.01 1000.01 1000.01 1000.01 1000.01 1000.01 1000 1000 1000 1000 1000 1000 1000 1000 1000 1000 1000 1000 1000 1000 1000 1000 1000 1000 1000 1000 1000 1000 1000 1000 1000 1000 1000 1000 1000 1000 1000 1000 1000 1000 1000 1000.01 1000.01 1000.01 1000.01 1000.01 1000.01 1000.01 1000 1000 1000 1000 1000 1000 1000 1000 1000 1000 1000 1000 1000 1000 1000 1000 1000 1000 1000 1000 1000 1000 1000 1000 1000 1000 1000 1000 1000 1000 1000 1000 1000 1000.01 1000.01 1000.01 1000.01 1000.01 1000.01 1000.01 1000.01 1000 1000 1000 1000 1000 1000 1000 1000 1000 1000 1000 1000 1000 1000 1000 1000 1000 1000 1000 1000 1000 1000 1000 1000 1000 1000 1000 1000 1000 1000 1000 1000 1000 1000.01 1000.01 1000.01 1000.01 1000.01 1000.01 1000.01 1000 1000 1000 1000 1000 1000 1000 1000 1000 1000 1000 1000 1000 1000 1000 1000 1000 1000 1000 1000 1000 1000 1000 1000 1000 1000 1000 1000 1000 1000 1000 1000 1000 1000 1000 1000.01 1000.01 1000.01 1000.01 1000.01 1000.01 1000.01 1000 1000 1000 1000 1000 1000 1000 1000 1000 1000 1000 1000 1000 1000 1000 1000 1000 1000 1000 1000 1000 1000 1000 1000 1000 1000 1000 1000 1000 1000 1000 1000 1000 1000.01 1000.01 1000.01 1000.01 1000.01 1000.01 1000.01 1000.01 1000 1000 1000 1000 1000 1000 1000 1000 1000 1000 1000 1000 1000 1000 1000 1000 1000 1000 1000 1000 1000 1000 1000 1000 1000 1000 1000 1000 1000 1000 1000 1000 1000 1000.01 1000.01 1000.01 1000.01 1000.01 1000.01 1000.01 1000 1000 1000 1000 1000 1000 1000 1000 1000 1000 1000 1000 1000 1000 1000 1000 1000 1000 1000 1000 1000 1000 1000 1000 1000 1000 1000 1000 1000 1000 1000 1000 1000 1000 1000 1000.01 1000.01 1000.01 1000.01 1000.01 1000.01 1000 1000 1000 1000 1000 1000 1000 1000 1000 1000 1000 1000 1000 1000 1000 1000 1000 1000 1000 1000 1000 1000 1000 1000 1000 1000 1000 1000 1000 1000 1000 1000 1000 1000 1000 1000.01 1000.01 1000.01 1000.01 1000.01 1000.01 1000.01 1000 1000 1000 1000 1000 1000 1000 1000 1000 1000 1000 1000 1000 1000 1000 1000 1000 1000 1000 1000 1000 1000 1000 1000 1000 1000 1000 1000 1000 1000 1000 1000 1000 1000.01 1000.01 1000.01 1000.01 1000.01 1000.01 1000.01 1000.01 1000 1000 1000 1000 1000 1000 1000 1000 1000 1000 1000 1000 1000 1000 1000 1000 1000 1000 1000 1000 1000 1000 1000 1000 1000 1000 1000 1000 1000 1000 1000 1000 1000 1000.01 1000.01 1000.01 1000.01 1000.01 1000.01 1000.01 1000 1000 1000 1000 1000 1000 1000 1000 1000 1000 1000 1000 1000 1000 1000 1000 1000 1000 1000 1000 1000 1000 1000 1000 1000 1000 1000 1000 1000 1000 1000 1000 1000 1000 1000 1000.01 1000.01 1000.01 1000.01 1000.01 1000.01 1000 1000 1000 1000 1000 1000 1000 1000 1000 1000 1000 1000 1000 1000 1000 1000 1000 1000 1000 1000 1000 1000 1000 1000 1000 1000 1000 1000 1000 1000 1000 1000 1000 1000 1000 1000.01 1000.01 1000.01 1000.01 1000.01 1000.01 1000.01 1000 1000 1000 1000 1000 1000 1000 1000 1000 1000 1000 1000 1000 1000 1000 1000 1000 1000 1000 1000 1000 1000 1000 1000 1000 1000 1000 1000 1000 1000 1000 1000 1000 1000.01 1000.01 1000.01 1000.01 1000.01 1000.01 1000.01 1000.01 1000 1000 1000 1000 1000 1000 1000 1000 1000 1000.01 1000 1000 1000 1000 1000 1000 1000 1000 1000 1000 1000 1000 1000 1000 1000 1000 1000 1000 1000 1000 1000 1000 1000 1000.01 1000.01 1000.01 1000.01 1000.03 1000.02 1000.02 1000.01 1000.01 1000 1000.01 1000.01 1000 1000 1000.01 1000.01 1000.01 1000 1000.01 1000.01 1000.01 1000.01 1000.01 1000 1000.01 1000.01 1000 1000 1000.01 1000.01 1000 1000.01 1000.01 1000 1000 1000.01 1000.01 1000 1000 1000.01 1000.01 1000.01 1000.02 1000.02 1000.02 1000.02 1000.01 1000.01 1000.02 1000.01 1000.01 1000.01 1000.01 1000.01 1000.01 1000.01 1000.01 1000.01 1000.01 1000.01 1000.01 1000.01 1000.01 1000.01 1000.01 1000.01 1000.01 1000.01 1000.01 1000.01 1000.01 1000.01 1000.01 1000.01 1000.01 1000.01 1000.01 1000.01 1000.01 1000.01 1000.01 1000.01 1000.02 1000.02 1000.01 1000.02 1000.01 1000.01 1000.01 1000.02 1000.01 1000.01 1000.01 1000.01 1000.01 1000.01 1000.01 1000.01 1000.01 1000.01 1000.01 1000.01 1000.01 1000.01 1000.01 1000.01 1000.01 1000.01 1000.01 1000.01 1000.01 1000.01 1000.01 1000.01 1000.01 1000.01 1000.01 1000.01 1000.01 1000.01 1000.01 1000.01 1000.01 1000.02 1000.01 1000.01 1000.02 1000.02 1000.02 1000.02 1000.02 1000.01 1000.01 1000.01 1000.01 1000.01 1000.01 1000.01 1000.01 1000.01 1000.01 1000.01 1000.01 1000.01 1000.01 1000.01 1000.01 1000.01 1000.01 1000.01 1000.01 1000.01 1000.01 1000.01 1000.01 1000.01 1000.01 1000.01 1000.01 1000.01 1000.01 1000.01 1000.01 1000.01 1000.02 1000.02 1000.02 1000.01 1000 1000 1000 1000 1000 1000 1000 1000 1000 1000 1000 1000 1000 1000 1000 1000 1000 1000 1000 1000 1000 1000 1000 1000 1000 1000 1000 1000 1000 1000 1000 1000 1000 1000 1000 1000 1000 1000 1000 1000 1000 1000 1000 1000 1000 1000 1000 1000 1000 1000 1000 1000 1000 1000 1000 1000 1000 1000 1000 1000 1000 1000 1000 1000 1000 1000 1000 1000 1000 1000 1000 1000 1000 1000 1000 1000 1000 1000 1000 1000 1000 1000 1000 1000 1000 1000 1000 1000 1000 1000 1000 1000 1000 1000 1000 1000 1000 1000 1000 1000 1000 1000 1000 1000 1000 1000 1000 1000 1000 1000 1000 1000 1000 1000 1000 1000 1000 1000 1000 1000 1000 1000 1000 1000 1000 1000 1000 1000 1000 1000 1000 1000 1000 1000 1000 1000 1000 1000 1000 1000 1000 1000 1000 1000 1000 1000 1000 1000 1000 1000 1000 1000 1000 1000 1000 1000 1000 1000 1000 1000 1000 1000 1000 1000 1000 1000 1000 1000 1000 1000 1000 1000 1000 1000 1000 1000 1000 1000 1000 1000 1000 1000 1000 1000 1000 1000 1000 1000 1000 1000 1000 1000 1000 1000 1000 1000 1000 1000 1000 1000 1000 1000 1000 1000 1000 1000 1000 1000 1000 1000 1000 1000 1000 1000 1000 1000 1000 1000 1000 1000 1000 1000 1000 1000 1000 1000 1000 1000 1000 1000 1000 1000 1000 1000 1000 1000 1000 1000 1000 1000 1000 1000 1000 1000 1000 1000 1000 1000 1000 1000 1000 1000 1000 1000 1000 1000 1000 1000 1000 1000 1000 1000 1000 1000 1000 1000 1000 1000 1000 1000 1000 1000 1000 1000 1000 1000 1000 1000 1000 1000 1000 1000 1000 1000 1000 1000 1000 1000 1000 1000 1000 1000 1000 1000 1000 1000 1000 1000 1000 1000 1000 1000 1000 1000 1000 1000 1000 1000 1000 1000 1000 1000 1000 1000 1000 1000 1000 1000 1000 1000 1000 1000 1000 1000 1000 1000 1000 1000 
</DataArray>
<DataArray type="Float32" Name="Velocity" NumberOfComponents="3" format="ascii">
0.004313089 0.0061568408 0
0.00047250421 0.0057829316 0
-4.7396767e-05 0.0055739833 0
0.00011089583 0.0048496439 0
2.6010668e-05 0.0041273586 0
1.3875868e-05 0.0029046396 0
3.0097624e-07 0.0041386699 0
8.9844485e-07 0.0041386676 0
1.9886417e-07 0.0029111221 0
3.3134245e-06 0.0029095688 0
-8.9269491e-07 0.0041386681 0
9.7600562e-08 0.0041386685 0
3.3949541e-07 0.0041386648 0
2.7219105e-10 0.0050446349 0
-4.2668799e-07 0.0041386671 0
7.5025832e-07 0.0041386685 0
-4.0617437e-08 0.0041386685 0
-7.1903389e-07 0.0041386732 0
1.1625125e-06 0.0041386685 0
6.7455323e-07 0.00290459 0
9.4361106e-08 0.0041386681 0
4.3728588e-07 0.0041386723 0
-7.5049684e-07 0.0029014817 0
6.2220465e-07 0.0029014817 0
-5.237593e-07 0.0041386685 0
8.7204938e-08 0.0041386676 0
4.5133676e-15 0.0029045923 0
-8.7204938e-08 0.0041386676 0
5.237593e-07 0.0041386685 0
-6.2221909e-07 0.0029014817 0
9.2025317e-08 0.0029014831 0
-5.7978377e-07 0.0041386695 0
5.8219467e-07 0.0041386695 0
-4.0534364e-06 0.0029014822 0
-1.190154e-07 0.0029014503 0
-8.6070731e-06 0.0041386685 0
-5.059881e-05 0.0041358643 0
-0.00017658864 0.002893718 0
-0.00080277654 0.0041425833 0
-0.00041265311 0.0039231861 0
-0.0045878566 0.0043881522 0
0.0040667485 0.001094733 0
0.00085517933 0.0011721302 0
0.00025976531 0.00087761425 0
0.00023493692 0.00096424721 0
4.9726681e-05 0.0011549462 0
-1.0353912e-07 0.00085352996 0
-1.890256e-06 0.001160088 0
1.9114721e-06 0.0011600896 0
-7.6231868e-07 0.0010367082 0
2.6439304e-07 0.0010365208 0
-5.404961e-07 0.0011600943 0
2.1143262e-06 0.0011601502 0
1.7098652e-07 0.0011601484 0
-6.2157505e-07 0.0014099134 0
-5.2115956e-07 0.0011601492 0
-1.664696e-07 0.0011601502 0
-1.3618564e-08 0.0011601502 0
-1.5360297e-06 0.0011601516 0
4.6009259e-07 0.0011600853 0
-3.6130392e-09 0.00085359399 0
1.9423549e-06 0.0011600853 0
-2.0986095e-06 0.0011600872 0
-9.2768352e-07 0.0010366748 0
9.2083127e-07 0.0010366748 0
2.0790487e-06 0.0011600868 0
-1.9705462e-06 0.0011600852 0
6.1845636e-15 0.00085354032 0
1.9705462e-06 0.0011600852 0
-2.0790487e-06 0.0011600868 0
-9.2083127e-07 0.0010366748 0
9.3017729e-07 0.0010366739 0
2.1004741e-06 0.0011600882 0
-2.0506127e-06 0.0011600909 0
-9.0051856e-07 0.0010366688 0
9.9862757e-07 0.0010366716 0
-3.3432316e-06 0.0011600952 0
-5.0845279e-05 0.0011568246 0
-0.00026309691 0.000875514 0
-0.00041705469 0.00064612075 0
-0.00077741459 0.00078084623 0
-0.003804628 0.00037541235 0
0.0037863795 0.00047860041 0
0.00076449505 0.00045686646 0
0.00051994564 0.00025783488 0
0.00036960607 0.00014410348 0
2.9438206e-05 0.00014819985 0
5.8528312e-06 0.00016159858 0
7.1418558e-06 0.00014793662 0
-1.1377897e-06 0.00014781019 0
5.5666533e-07 0.00017095293 0
2.461878e-06 0.00017105603 0
4.7980438e-06 0.00014771083 0
2.0221958e-06 0.00014737871 0
1.0105693e-06 0.00014734839 0
-1.9075337e-07 0.00017057196 0
1.5305286e-06 0.00014736355 0
8.3154902e-07 0.00014737874 0
6.6268782e-08 0.00014737874 0
4.1180786e-07 0.00014737881 0
-1.4166854e-06 0.00014745208 0
5.2246554e-07 0.00016260089 0
-1.2396533e-06 0.00014744495 0
-2.5076667e-06 0.00014751186 0
6.8538083e-07 0.000171129 0
1.7805532e-07 0.00017114008 0
1.7551955e-06 0.00014750074 0
4.0211768e-07 0.00014744283 0
-1.9718671e-15 0.00016266109 0
-4.0211768e-07 0.00014744283 0
-1.7551955e-06 0.00014750074 0
-1.7805532e-07 0.00017114008 0
-3.3052427e-06 0.00017106159 0
-2.6201096e-06 0.00014757748 0
-4.8778516e-06 0.00014781134 0
-3.7744296e-06 0.00017082768 0
-6.4861678e-07 0.00017076354 0
-5.1964065e-07 0.00014790572 0
-3.7176123e-05 0.00014740841 0
-0.0003534235 0.00018398285 0
-0.00036987325 0.00036216356 0
-0.00060130539 0.00047012532 0
-0.0039802049 0.00069822714 0
0.0041927672 0.00029530167 0
0.0009516729 0.00022411003 0
0.00037834342 0.00011567629 0
0.00013432787 5.7869227e-05 0
3.646229e-05 0.00010307511 0
4.2376823e-06 1.5202685e-05 0
1.688313e-06 0.00010522974 0
3.0174958e-06 0.00010518936 0
7.4779962e-07 1.5924492e-05 0
-8.1838391e-07 1.592337e-05 0
1.3072552e-08 0.00010518555 0
-1.2914184e-07 0.00010518555 0
-9.0218072e-07 0.00010516586 0
-5.8785548e-07 9.4708412e-05 0
1.0704073e-06 0.00010515864 0
-5.0777771e-08 0.00010518557 0
-4.9999556e-07 0.00010518558 0
2.0488795e-07 0.00010518466 0
5.2522017e-07 0.00010518291 0
6.3819465e-07 1.5306865e-05 0
4.5010231e-07 0.00010518919 0
3.9703053e-07 0.00010518623 0
4.9516137e-07 1.5871585e-05 0
-4.960429e-07 1.5871627e-05 0
-4.0150951e-07 0.00010518619 0
2.8296943e-08 0.00010518629 0
-2.7212009e-15 1.531648e-05 0
-2.8296943e-08 0.00010518629 0
4.0150951e-07 0.00010518619 0
4.9604233e-07 1.5871627e-05 0
-4.948331e-07 1.5871454e-05 0
1.3464123e-07 0.00010518605 0
-1.3088091e-07 0.00010518642 0
4.8892065e-07 1.5873682e-05 0
-7.3994884e-06 1.5812708e-05 0
-9.4735269e-06 0.00010524371 0
-4.7316276e-05 9.6326759e-05 0
-0.00020616307 9.8836048e-05 0
-0.00011554609 0.00031853042 0
-0.0010788763 0.00022426044 0
-0.0041440339 0.00027638173 0
0.0041867555 0.00031916102 0
0.0010526868 0.00013279714 0
0.00023851779 0.00014208678 0
0.00018236796 7.0319242e-05 0
2.6250993e-05 1.548227e-05 0
2.4545363e-07 6.0460138e-08 0
1.1091151e-07 1.6241003e-05 0
1.5089187e-09 1.624084e-05 0
7.6800895e-08 6.1461634e-08 0
-9.7301552e-08 6.1440161e-08 0
-1.759002e-07 1.6240851e-05 0
-1.9042979e-07 1.6240783e-05 0
3.1881103e-07 1.624068e-05 0
-2.028541e-12 9.2345217e-05 0
-3.1943648e-07 1.6240692e-05 0
1.9082445e-07 1.6240789e-05 0
-4.6628976e-08 1.6240783e-05 0
1.7290063e-07 1.6240787e-05 0
-1.6833855e-08 1.6240885e-05 0
9.7289821e-08 6.0825101e-08 0
-2.7918253e-07 1.6240854e-05 0
2.7702484e-07 1.6240858e-05 0
6.4069567e-08 6.1405778e-08 0
-6.4069567e-08 6.1405892e-08 0
-2.7704684e-07 1.6240841e-05 0
2.7768786e-07 1.6240845e-05 0
-2.3732127e-16 6.091711e-08 0
-2.7768786e-07 1.6240845e-05 0
2.7704684e-07 1.6240841e-05 0
6.4069567e-08 6.1405892e-08 0
-6.4069624e-08 6.140575e-08 0
-2.7744048e-07 1.6240843e-05 0
2.7744048e-07 1.6240843e-05 0
6.4069624e-08 6.1405544e-08 0
-1.1789871e-07 6.1298188e-08 0
-5.9750238e-07 1.6240889e-05 0
-2.128726e-05 2.3289111e-05 0
-9.7732329e-05 4.3827968e-05 0
-0.00014726658 3.5134373e-05 0
-0.0011545605 6.227335e-05 0
-0.0041226912 0.00010056226 0
0.0029634275 0.000140665 0
0.00098669855 0.00015367017 0
0.00023406267 0.00012581375 0
1.8790201e-05 6.9700785e-05 0
1.362656e-05 1.9697379e-06 0
2.4033781e-07 -2.0513467e-12 0
-4.7146549e-09 2.5026611e-07 0
4.7745332e-09 2.5026605e-07 0
-1.414797e-17 6.8564269e-12 0
6.1633906e-18 6.8533994e-12 0
-4.7744559e-09 2.5026605e-07 0
4.7747681e-09 2.5026603e-07 0
-3.0379077e-08 2.5025739e-07 0
0 8.1896815e-06 0
3.0379077e-08 2.5025739e-07 0
-4.7747681e-09 2.5026603e-07 0
4.7744559e-09 2.5026603e-07 0
-4.7744559e-09 2.5026603e-07 0
4.7744559e-09 2.5026603e-07 0
0 6.7878403e-12 0
-4.7744217e-09 2.5026603e-07 0
4.7744217e-09 2.5026603e-07 0
0 6.8558215e-12 0
0 6.8558366e-12 0
-4.7744217e-09 2.5026603e-07 0
4.7744217e-09 2.5026603e-07 0
0 6.8007449e-12 0
-4.7744217e-09 2.5026603e-07 0
4.7744217e-09 2.5026603e-07 0
0 6.8558366e-12 0
0 6.8558189e-12 0
-4.7744217e-09 2.5026603e-07 0
4.7744217e-09 2.5026603e-07 0
0 6.8557686e-12 0
0 6.8414788e-12 0
-4.7894551e-09 2.5026608e-07 0
-5.1411014e-08 2.9325116e-07 0
-1.5768326e-05 6.6012944e-06 0
-0.00017065172 7.0278566e-06 0
-0.0010362357 2.9910399e-07 0
-0.0029099039 1.5820004e-05 0
0.0041386792 3.1512327e-06 0
0.0011600333 -1.4128273e-06 0
0.00014820273 1.7537439e-05 0
0.00010524798 4.9417508e-06 0
1.6261252e-05 1.006557e-07 0
2.5027441e-07 -4.7749213e-09 0
-4.7108557e-09 -4.7108579e-09 0
4.7746509e-09 -4.7108579e-09 0
0 -4.7746509e-09 0
0 -4.7746509e-09 0
-4.7746509e-09 -4.7108579e-09 0
4.7746509e-09 -4.7108579e-09 0
-4.7746509e-09 -4.7108584e-09 0
0 2.7256153e-08 0
4.7746509e-09 -4.7108584e-09 0
-4.7746509e-09 -4.7108579e-09 0
4.7746509e-09 -4.7108579e-09 0
-4.7746509e-09 -4.7108579e-09 0
4.7746509e-09 -4.7108579e-09 0
0 -4.7746509e-09 0
-4.7746562e-09 -4.7108579e-09 0
4.7746562e-09 -4.7108579e-09 0
0 -4.7746509e-09 0
0 -4.7746509e-09 0
-4.7746562e-09 -4.7108579e-09 0
4.7746562e-09 -4.7108579e-09 0
0 -4.7746509e-09 0
-4.7746562e-09 -4.7108579e-09 0
4.7746562e-09 -4.7108579e-09 0
0 -4.7746509e-09 0
0 -4.7746509e-09 0
-4.7746562e-09 -4.7108579e-09 0
4.7746562e-09 -4.7108579e-09 0
0 -4.7746509e-09 0
0 -4.7746509e-09 0
-2.5503928e-07 -4.7107598e-09 0
-1.6231636e-05 1.1086948e-07 0
-0.00010524874 3.0995113e-06 0
-0.00014797105 8.3668065e-06 0
-0.0011600688 -1.8883339e-06 0
-0.0041386629 2.9676508e-07 0
0.0041386671 1.1900665e-06 0
0.0011600907 4.1673929e-06 0
0.00014784517 -1.2578638e-06 0
0.00010521122 3.6280703e-06 0
1.6240851e-05 2.8288619e-07 0
2.5026608e-07 4.7744186e-09 0
-4.7108579e-09 4.7746509e-09 0
4.7746509e-09 4.7746509e-09 0
0 4.7746509e-09 0
0 4.7746509e-09 0
-4.7746509e-09 4.7746509e-09 0
4.7746509e-09 4.7746509e-09 0
-4.7746509e-09 4.7746509e-09 0
0 4.775734e-09 0
4.7746509e-09 4.7746509e-09 0
-4.7746509e-09 4.7746509e-09 0
4.7746509e-09 4.7746509e-09 0
-4.7746509e-09 4.7746509e-09 0
4.7746509e-09 4.7746509e-09 0
0 4.7746509e-09 0
-4.7746562e-09 4.7746509e-09 0
4.7746562e-09 4.7746509e-09 0
0 4.7746509e-09 0
0 4.7746509e-09 0
-4.7746562e-09 4.7746509e-09 0
4.7746562e-09 4.7746509e-09 0
0 4.7746509e-09 0
-4.7746562e-09 4.7746509e-09 0
4.7746562e-09 4.7746509e-09 0
0 4.7746509e-09 0