<?xml version="1.0" ?>

<VTKFile type="UnstructuredGrid" version="0.1" byte_order="BigEndian">

<UnstructuredGrid>

<Piece NumberOfPoints= " 2009 " NumberOfCells=" 2009 ">

<PointData Scalars="Pressure" Vectors="Velocity">

<DataArray type="Float32" Name="Pressure" format="ascii">

28.3268 21.4592 28.6487 9.11979 10.7292 7.0812 10.8365 10.8365 7.0812 7.0812 10.8365 10.8365 10.8365 7.83225 10.8365 10.8365 10.8365 10.8365 10.8365 7.0812 10.8365 10.8365 7.0812 7.0812 10.8365 10.8365 7.0812 10.8365 10.8365 7.0812 7.0812 10.8365 10.8365 7.0812 7.0812 10.8365 10.8365 6.97391 33.3704 27.5756 34.4435 22.7469 18.9912 17.3817 4.82805 7.40308 8.36873 7.51037 7.51037 8.36873 8.36873 7.51037 7.51037 7.51037 5.36451 7.51037 7.51037 7.51037 7.51037 7.51037 8.36873 7.51037 7.51037 8.36873 8.36873 7.51037 7.51037 8.36873 7.51037 7.51037 8.36873 8.36873 7.51037 7.51037 8.36873 8.36873 7.51037 7.51037 8.15414 24.6784 22.2103 26.7172 24.2491 19.4205 20.4935 8.04684 8.69061 1.28747 8.7979 8.7979 1.28747 1.28747 8.7979 8.7979 8.7979 8.04684 8.7979 8.7979 8.7979 8.7979 8.7979 1.28747 8.7979 8.7979 1.28747 1.28747 8.7979 8.7979 1.28747 8.7979 8.7979 1.28747 1.28747 8.7979 8.7979 1.28747 1.28747 8.7979 8.7979 1.50204 32.7265 25.4295 33.4777 28.6487 22.5322 24.3564 1.39476 0 0 0 0 0 0 0 0 0 3.21869 0 0 0 0 0 0 0 0 0 0 0 0 0 0 0 0 0 0 0 0 0 0 0 0 9.01249 7.93955 11.2657 11.1584 7.51037 9.22708 0 0 0 0 0 0 0 0 0 0 0 0 0 0 0 0 0 0 0 0 0 0 0 0 0 0 0 0 0 0 0 0 0 0 0 8.69061 7.40308 10.7292 7.0812 8.36873 1.28747 0 0 0 0 0 0 0 0 0 0 0 0 0 0 0 0 0 0 0 0 0 0 0 0 0 0 0 0 0 0 0 0 0 0 0 1.28747 8.36873 7.0812 10.8365 7.51037 8.7979 0 0 0 0 0 0 0 0 0 0 0 0 0 0 0 0 0 0 0 0 0 0 0 0 0 0 0 0 0 0 0 0 0 0 0 8.7979 7.51037 10.8365 10.8365 7.51037 8.7979 0 0 0 0 0 0 0 0 0 0 0 0 0 0 0 0 0 0 0 0 0 0 0 0 0 0 0 0 0 0 0 0 0 0 0 8.7979 7.51037 10.8365 7.0812 8.36873 1.28747 0 0 0 0 0 0 0 0 0 0 0 0 0 0 0 0 0 0 0 0 0 0 0 0 0 0 0 0 0 0 0 0 0 0 0 1.28747 8.36873 7.0812 7.0812 8.36873 1.28747 0 0 0 0 0 0 0 0 0 0 0 0 0 0 0 0 0 0 0 0 0 0 0 0 0 0 0 0 0 0 0 0 0 0 0 1.28747 8.36873 7.0812 10.8365 7.51037 8.7979 0 0 0 0 0 0 0 0 0 0 0 0 0 0 0 0 0 0 0 0 0 0 0 0 0 0 0 0 0 0 0 0 0 0 0 8.7979 7.51037 10.8365 10.8365 7.51037 8.7979 0 0 0 0 0 0 0 0 0 0 0 0 0 0 0 0 0 0 0 0 0 0 0 0 0 0 0 0 0 0 0 0 0 0 0 8.7979 7.51037 10.8365 10.8365 7.51037 8.7979 0 0 0 0 0 0 0 0 0 0 0 0 0 0 0 0 0 0 0 0 0 0 0 0 0 0 0 0 0 0 0 0 0 0 0 8.7979 7.51037 10.8365 7.83225 5.36451 8.04684 3.21869 0 0 0 0 0 0 0 0 0 0 0 0 0 0 0 0 0 0 0 0 0 0 0 0 0 0 0 0 0 0 0 0 0 3.21869 8.04684 5.36451 7.83225 10.8365 7.51037 8.7979 0 0 0 0 0 0 0 0 0 0 0 0 0 0 0 0 0 0 0 0 0 0 0 0 0 0 0 0 0 0 0 0 0 0 0 8.7979 7.51037 10.8365 10.8365 7.51037 8.7979 0 0 0 0 0 0 0 0 0 0 0 0 0 0 0 0 0 0 0 0 0 0 0 0 0 0 0 0 0 0 0 0 0 0 0 8.7979 7.51037 10.8365 10.8365 7.51037 8.7979 0 0 0 0 0 0 0 0 0 0 0 0 0 0 0 0 0 0 0 0 0 0 0 0 0 0 0 0 0 0 0 0 0 0 0 8.7979 7.51037 10.8365 10.8365 7.51037 8.7979 0 0 0 0 0 0 0 0 0 0 0 0 0 0 0 0 0 0 0 0 0 0 0 0 0 0 0 0 0 0 0 0 0 0 0 8.7979 7.51037 10.8365 10.8365 7.51037 8.7979 0 0 0 0 0 0 0 0 0 0 0 0 0 0 0 0 0 0 0 0 0 0 0 0 0 0 0 0 0 0 0 0 0 0 0 8.7979 7.51037 10.8365 7.0812 8.36873 1.28747 0 0 0 0 0 0 0 0 0 0 0 0 0 0 0 0 0 0 0 0 0 0 0 0 0 0 0 0 0 0 0 0 0 0 0 1.28747 8.36873 7.0812 10.8365 7.51037 8.7979 0 0 0 0 0 0 0 0 0 0 0 0 0 0 0 0 0 0 0 0 0 0 0 0 0 0 0 0 0 0 0 0 0 0 0 8.7979 7.51037 10.8365 10.8365 7.51037 8.7979 0 0 0 0 0 0 0 0 0 0 0 0 0 0 0 0 0 0 0 0 0 0 0 0 0 0 0 0 0 0 0 0 0 0 0 8.7979 7.51037 10.8365 7.0812 8.36873 1.28747 0 0 0 0 0 0 0 0 0 0 0 0 0 0 0 0 0 0 0 0 0 0 0 0 0 0 0 0 0 0 0 0 0 0 0 1.28747 8.36873 7.0812 7.0812 8.36873 1.28747 0 0 0 0 0 0 0 0 0 0 0 0 0 0 0 0 0 0 0 0 0 0 0 0 0 0 0 0 0 0 0 0 0 0 0 1.28747 8.36873 7.0812 10.8365 7.51037 8.7979 0 0 0 0 0 0 0 0 0 0 0 0 0 0 0 0 0 0 0 0 0 0 0 0 0 0 0 0 0 0 0 0 0 0 0 8.7979 7.51037 10.8365 10.8365 7.51037 8.7979 0 0 0 0 0 0 0 0 0 0 0 0 0 0 0 0 0 0 0 0 0 0 0 0 0 0 0 0 0 0 0 0 0 0 0 8.7979 7.51037 10.8365 7.0812 8.36873 1.28747 0 0 0 0 0 0 0 0 0 0 0 0 0 0 0 0 0 0 0 0 0 0 0 0 0 0 0 0 0 0 0 0 0 0 0 1.28747 8.36873 7.0812 10.8365 7.51037 8.7979 0 0 0 0 0 0 0 0 0 0 0 0 0 0 0 0 0 0 0 0 0 0 0 0 0 0 0 0 0 0 0 0 0 0 0 8.7979 7.51037 10.8365 10.8365 7.51037 8.7979 0 0 0 0 0 0 0 0 0 0 0 0 0 0 0 0 0 0 0 0 0 0 0 0 0 0 0 0 0 0 0 0 0 0 0 8.7979 7.51037 10.8365 7.0812 8.36873 1.28747 0 0 0 0 0 0 0 0 0 0 0 0 0 0 0 0 0 0 0 0 0 0 0 0 0 0 0 0 0 0 0 0 0 0 0 1.28747 8.36873 7.0812 7.0812 8.36873 1.28747 0 0 0 0 0 0 0 0 0 0 0 0 0 0 0 0 0 0 0 0 0 0 0 0 0 0 0 0 0 0 0 0 0 0 0 1.28747 8.36873 7.0812 10.8365 7.51037 8.7979 0 0 0 0 0 0 0 0 0 0 0 0 0 0 0 0 0 0 0 0 0 0 0 0 0 0 0 0 0 0 0 0 0 0 0 8.7979 7.51037 10.8365 10.8365 7.51037 8.7979 0 0 0 0 0 0 0 0 0 0 0 0 0 0 0 0 0 0 0 0 0 0 0 0 0 0 0 0 0 0 0 0 0 0 0 8.7979 7.51037 10.8365 7.0812 8.36873 1.28747 0 0 0 0 0 0 0 0 0 0 0 0 0 0 0 0 0 0 0 0 0 0 0 0 0 0 0 0 0 0 0 0 0 0 0 1.28747 8.36873 7.0812 7.0812 8.36873 1.28747 0 0 0 0 0 0 0 0 0 0 0 0 0 0 0 0 0 0 0 0 0 0 0 0 0 0 0 0 0 0 0 0 0 0 0 1.28747 8.36873 7.0812 10.8365 7.51037 8.7979 0 0 0 0 0 0 0 0 0 0 0 0 0 0 0 0 0 0 0 0 0 0 0 0 0 0 0 0 0 0 0 0 0 0 0 8.7979 7.51037 10.8365 10.8365 7.51037 8.7979 0 0 0 0 0 0 0 0 0 0 0 0 0 0 0 0 0 0 0 0 0 0 0 0 0 0 0 0 0 0 0 0 0 0 0 8.7979 7.51037 10.8365 6.97391 8.15414 1.50204 0 0 0 0 0 0 0 0 0 0 3.21869 0 0 0 0 0 0 0 0 0 0 0 0 0 0 0 0 0 0 0 0 0 0 0 0 1.50204 8.15414 6.97391 33.3704 24.6784 32.7265 9.01249 8.69061 1.28747 8.7979 8.7979 1.28747 1.28747 8.7979 8.7979 8.7979 8.04684 8.7979 8.7979 8.7979 8.7979 8.7979 1.28747 8.7979 8.7979 1.28747 1.28747 8.7979 8.7979 1.28747 8.7979 8.7979 1.28747 1.28747 8.7979 8.7979 1.28747 1.28747 8.7979 8.7979 1.50204 33.1558 24.893 33.6923 27.5756 22.2103 25.4295 7.93955 7.40308 8.36873 7.51037 7.51037 8.36873 8.36873 7.51037 7.51037 7.51037 5.36451 7.51037 7.51037 7.51037 7.51037 7.51037 8.36873 7.51037 7.51037 8.36873 8.36873 7.51037 7.51037 8.36873 7.51037 7.51037 8.36873 8.36873 7.51037 7.51037 8.36873 8.36873 7.51037 7.51037 8.15414 24.893 21.8884 26.9318 34.4435 26.7172 33.4777 11.2657 10.7292 7.0812 10.8365 10.8365 7.0812 7.0812 10.8365 10.8365 10.8365 7.83225 10.8365 10.8365 10.8365 10.8365 10.8365 7.0812 10.8365 10.8365 7.0812 7.0812 10.8365 10.8365 7.0812 10.8365 10.8365 7.0812 7.0812 10.8365 10.8365 7.0812 7.0812 10.8365 10.8365 6.97391 33.6923 26.9318 34.9801 0.1 0.1 0.1 0.1 0.1 0.1 0.1 0.1 0.1 0.1 0.1 0.1 0.1 0.1 0.1 0.1 0.1 0.1 0.1 0.1 0.1 0.1 0.1 0.1 0.1 0.1 0.1 0.1 0.1 0.1 0.1 0.1 0.1 0.1 0.1 0.1 0.1 0.1 0.1 0.1 0.1 0.1 0.1 0.1 0.1 0.1 0.1 0.1 0.1 0.1 0.1 0.1 0.1 0.1 0.1 0.1 0.1 0.1 0.1 0.1 0.1 0.1 0.1 0.1 0.1 0.1 0.1 0.1 0.1 0.1 0.1 0.1 0.1 0.1 0.1 0.1 0.1 0.1 0.1 0.1 0.1 0.1 0.1 0.1 0.1 0.1 0.1 0.1 0.1 0.1 0.1 0.1 0.1 0.1 0.1 0.1 0.1 0.1 0.1 0.1 0.1 0.1 0.1 0.1 0.1 0.1 0.1 0.1 0.1 0.1 0.1 0.1 0.1 0.1 0.1 0.1 0.1 0.1 0.1 0.1 0.1 0.1 0.1 0.1 0.1 0.1 0.1 0.1 0.1 0.1 0.1 0.1 0.1 0.1 0.1 0.1 0.1 0.1 0.1 0.1 0.1 0.1 0.1 0.1 0.1 0.1 0.1 0.1 0.1 0.1 0.1 0.1 0.1 0.1 0.1 0.1 0.1 0.1 0.1 0.1 0.1 0.1 0.1 0.1 0.1 0.1 0.1 0.1 0.1 0.1 0.1 0.1 0.1 0.1 0.1 0.1 0.1 0.1 0.1 0.1 0.1 0.1 0.1 0.1 0.1 0.1 0.1 0.1 0.1 0.1 0.1 0.1 0.1 0.1 0.1 0.1 0.1 0.1 0.1 0.1 0.1 0.1 0.1 0.1 0.1 0.1 0.1 0.1 0.1 0.1 0.1 0.1 0.1 0.1 0.1 0.1 0.1 0.1 0.1 0.1 0.1 0.1 0.1 0.1 0.1 0.1 0.1 0.1 0.1 0.1 0.1 0.1 0.1 0.1 0.1 0.1 0.1 0.1 0.1 0.1 0.1 0.1 0.1 0.1 0.1 0.1 0.1 0.1 0.1 0.1 0.1 0.1 0.1 0.1 0.1 0.1 0.1 0.1 0.1 0.1 0.1 0.1 0.1 0.1 0.1 0.1 0.1 0.1 0.1 0.1 0.1 0.1 0.1 0.1 0.1 0.1 0.1 0.1 0.1 0.1 0.1 0.1 0.1 0.1 0.1 0.1 0.1 0.1 0.1 0.1 0.1 0.1 0.1 0.1 0.1 0.1 0.1 0.1 0.1 0.1 0.1 0.1 0.1 0.1 0.1 0.1 0.1 0.1 0.1 0.1 0.1 0.1 0.1 0.1 0.1 0.1 0.1 0.1 0.1 0.1 0.1 0.1 0.1 0.1 0.1 0.1 0.1 0.1 
</DataArray>

<DataArray type="Float32" Name="Density" format="ascii">
1000.03 1000.02 1000.03 1000.01 1000.01 1000.01 1000.01 1000.01 1000.01 1000.01 1000.01 1000.01 1000.01 1000.01 1000.01 1000.01 1000.01 1000.01 1000.01 1000.01 1000.01 1000.01 1000.01 1000.01 1000.01 1000.01 1000.01 1000.01 1000.01 1000.01 1000.01 1000.01 1000.01 1000.01 1000.01 1000.01 1000.01 1000.01 1000.04 1000.03 1000.04 1000.03 1000.02 1000.02 1000.01 1000.01 1000.01 1000.01 1000.01 1000.01 1000.01 1000.01 1000.01 1000.01 1000.01 1000.01 1000.01 1000.01 1000.01 1000.01 1000.01 1000.01 1000.01 1000.01 1000.01 1000.01 1000.01 1000.01 1000.01 1000.01 1000.01 1000.01 1000.01 1000.01 1000.01 1000.01 1000.01 1000.01 1000.01 1000.03 1000.02 1000.03 1000.03 1000.02 1000.02 1000.01 1000.01 1000 1000.01 1000.01 1000 1000 1000.01 1000.01 1000.01 1000.01 1000.01 1000.01 1000.01 1000.01 1000.01 1000 1000.01 1000.01 1000 1000 1000.01 1000.01 1000 1000.01 1000.01 1000 1000 1000.01 1000.01 1000 1000 1000.01 1000.01 1000 1000.04 1000.03 1000.04 1000.03 1000.03 1000.03 1000 1000 1000 1000 1000 1000 1000 1000 1000 1000 1000 1000 1000 1000 1000 1000 1000 1000 1000 1000 1000 1000 1000 1000 1000 1000 1000 1000 1000 1000 1000 1000 1000 1000 1000 1000.01 1000.01 1000.01 1000.01 1000.01 1000.01 1000 1000 1000 1000 1000 1000 1000 1000 1000 1000 1000 1000 1000 1000 1000 1000 1000 1000 1000 1000 1000 1000 1000 1000 1000 1000 1000 1000 1000 1000 1000 1000 1000 1000 1000 1000.01 1000.01 1000.01 1000.01 1000.01 1000 1000 1000 1000 1000 1000 1000 1000 1000 1000 1000 1000 1000 1000 1000 1000 1000 1000 1000 1000 1000 1000 1000 1000 1000 1000 1000 1000 1000 1000 1000 1000 1000 1000 1000 1000 1000 1000.01 1000.01 1000.01 1000.01 1000.01 1000 1000 1000 1000 1000 1000 1000 1000 1000 1000 1000 1000 1000 1000 1000 1000 1000 1000 1000 1000 1000 1000 1000 1000 1000 1000 1000 1000 1000 1000 1000 1000 1000 1000 1000 1000.01 1000.01 1000.01 1000.01 1000.01 1000.01 1000 1000 1000 1000 1000 1000 1000 1000 1000 1000 1000 1000 1000 1000 1000 1000 1000 1000 1000 1000 1000 1000 1000 1000 1000 1000 1000 1000 1000 1000 1000 1000 1000 1000 1000 1000.01 1000.01 1000.01 1000.01 1000.01 1000 1000 1000 1000 1000 1000 1000 1000 1000 1000 1000 1000 1000 1000 1000 1000 1000 1000 1000 1000 1000 1000 1000 1000 1000 1000 1000 1000 1000 1000 1000 1000 1000 1000 1000 1000 1000 1000.01 1000.01 1000.01 1000.01 1000 1000 1000 1000 1000 1000 1000 1000 1000 1000 1000 1000 1000 1000 1000 1000 1000 1000 1000 1000 1000 1000 1000 1000 1000 1000 1000 1000 1000 1000 1000 1000 1000 1000 1000 1000 1000 1000.01 1000.01 1000.01 1000.01 1000.01 1000 1000 1000 1000 1000 1000 1000 1000 1000 1000 1000 1000 1000 1000 1000 1000 1000 1000 1000 1000 1000 1000 1000 1000 1000 1000 1000 1000 1000 1000 1000 1000 1000 1000 1000 1000.01 1000.01 1000.01 1000.01 1000.01 1000.01 1000 1000 1000 1000 1000 1000 1000 1000 1000 1000 1000 1000 1000 1000 1000 1000 1000 1000 1000 1000 1000 1000 1000 1000 1000 1000 1000 1000 1000 1000 1000 1000 1000 1000 1000 1000.01 1000.01 1000.01 1000.01 1000.01 1000.01 1000 1000 1000 1000 1000 1000 1000 1000 1000 1000 1000 1000 1000 1000 1000 1000 1000 1000 1000 1000 1000 1000 1000 1000 1000 1000 1000 1000 1000 1000 1000 1000 1000 1000 1000 1000.01 1000.01 1000.01 1000.01 1000.01 1000.01 1000 1000 1000 1000 1000 1000 1000 1000 1000 1000 1000 1000 1000 1000 1000 1000 1000 1000 1000 1000 1000 1000 1000 1000 1000 1000 1000 1000 1000 1000 1000 1000 1000 1000 1000 1000.01 1000.01 1000.01 1000.01 1000.01 1000.01 1000 1000 1000 1000 1000 1000 1000 1000 1000 1000 1000 1000 1000 1000 1000 1000 1000 1000 1000 1000 1000 1000 1000 1000 1000 1000 1000 1000 1000 1000 1000 1000 1000 1000 1000 1000.01 1000.01 1000.01 1000.01 1000.01 1000.01 1000 1000 1000 1000 1000 1000 1000 1000 1000 1000 1000 1000 1000 1000 1000 1000 1000 1000 1000 1000 1000 1000 1000 1000 1000 1000 1000 1000 1000 1000 1000 1000 1000 1000 1000 1000.01 1000.01 1000.01 1000.01 1000.01 1000.01 1000 1000 1000 1000 1000 1000 1000 1000 1000 1000 1000 1000 1000 1000 1000 1000 1000 1000 1000 1000 1000 1000 1000 1000 1000 1000 1000 1000 1000 1000 1000 1000 1000 1000 1000 1000.01 1000.01 1000.01 1000.01 1000.01 1000.01 1000 1000 1000 1000 1000 1000 1000 1000 1000 1000 1000 1000 1000 1000 1000 1000 1000 1000 1000 1000 1000 1000 1000 1000 1000 1000 1000 1000 1000 1000 1000 1000 1000 1000 1000 1000.01 1000.01 1000.01 1000.01 1000.01 1000.01 1000 1000 1000 1000 1000 1000 1000 1000 1000 1000 1000 1000 1000 1000 1000 1000 1000 1000 1000 1000 1000 1000 1000 1000 1000 1000 1000 1000 1000 1000 1000 1000 1000 1000 1000 1000.01 1000.01 1000.01 1000.01 1000.01 1000 1000 1000 1000 1000 1000 1000 1000 1000 1000 1000 1000 1000 1000 1000 1000 1000 1000 1000 1000 1000 1000 1000 1000 1000 1000 1000 1000 1000 1000 1000 1000 1000 1000 1000 1000 1000 1000.01 1000.01 1000.01 1000.01 1000.01 1000 1000 1000 1000 1000 1000 1000 1000 1000 1000 1000 1000 1000 1000 1000 1000 1000 1000 1000 1000 1000 1000 1000 1000 1000 1000 1000 1000 1000 1000 1000 1000 1000 1000 1000 1000.01 1000.01 1000.01 1000.01 1000.01 1000.01 1000 1000 1000 1000 1000 1000 1000 1000 1000 1000 1000 1000 1000 1000 1000 1000 1000 1000 1000 1000 1000 1000 1000 1000 1000 1000 1000 1000 1000 1000 1000 1000 1000 1000 1000 1000.01 1000.01 1000.01 1000.01 1000.01 1000 1000 1000 1000 1000 1000 1000 1000 1000 1000 1000 1000 1000 1000 1000 1000 1000 1000 1000 1000 1000 1000 1000 1000 1000 1000 1000 1000 1000 1000 1000 1000 1000 1000 1000 1000 1000 1000.01 1000.01 1000.01 1000.01 1000 1000 1000 1000 1000 1000 1000 1000 1000 1000 1000 1000 1000 1000 1000 1000 1000 1000 1000 1000 1000 1000 1000 1000 1000 1000 1000 1000 1000 1000 1000 1000 1000 1000 1000 1000 1000 1000.01 1000.01 1000.01 1000.01 1000.01 1000 1000 1000 1000 1000 1000 1000 1000 1000 1000 1000 1000 1000 1000 1000 1000 1000 1000 1000 1000 1000 1000 1000 1000 1000 1000 1000 1000 1000 1000 1000 1000 1000 1000 1000 1000.01 1000.01 1000.01 1000.01 1000.01 1000.01 1000 1000 1000 1000 1000 1000 1000 1000 1000 1000 1000 1000 1000 1000 1000 1000 1000 1000 1000 1000 1000 1000 1000 1000 1000 1000 1000 1000 1000 1000 1000 1000 1000 1000 1000 1000.01 1000.01 1000.01 1000.01 1000.01 1000 1000 1000 1000 1000 1000 1000 1000 1000 1000 1000 1000 1000 1000 1000 1000 1000 1000 1000 1000 1000 1000 1000 1000 1000 1000 1000 1000 1000 1000 1000 1000 1000 1000 1000 1000 1000 1000.01 1000.01 1000.01 1000.01 1000.01 1000 1000 1000 1000 1000 1000 1000 1000 1000 1000 1000 1000 1000 1000 1000 1000 1000 1000 1000 1000 1000 1000 1000 1000 1000 1000 1000 1000 1000 1000 1000 1000 1000 1000 1000 1000.01 1000.01 1000.01 1000.01 1000.01 1000.01 1000 1000 1000 1000 1000 1000 1000 1000 1000 1000 1000 1000 1000 1000 1000 1000 1000 1000 1000 1000 1000 1000 1000 1000 1000 1000 1000 1000 1000 1000 1000 1000 1000 1000 1000 1000.01 1000.01 1000.01 1000.01 1000.01 1000 1000 1000 1000 1000 1000 1000 1000 1000 1000 1000 1000 1000 1000 1000 1000 1000 1000 1000 1000 1000 1000 1000 1000 1000 1000 1000 1000 1000 1000 1000 1000 1000 1000 1000 1000 1000 1000.01 1000.01 1000.01 1000.01 1000 1000 1000 1000 1000 1000 1000 1000 1000 1000 1000 1000 1000 1000 1000 1000 1000 1000 1000 1000 1000 1000 1000 1000 1000 1000 1000 1000 1000 1000 1000 1000 1000 1000 1000 1000 1000 1000.01 1000.01 1000.01 1000.01 1000.01 1000 1000 1000 1000 1000 1000 1000 1000 1000 1000 1000 1000 1000 1000 1000 1000 1000 1000 1000 1000 1000 1000 1000 1000 1000 1000 1000 1000 1000 1000 1000 1000 1000 1000 1000 1000.01 1000.01 1000.01 1000.01 1000.01 1000.01 1000 1000 1000 1000 1000 1000 1000 1000 1000 1000 1000 1000 1000 1000 1000 1000 1000 1000 1000 1000 1000 1000 1000 1000 1000 1000 1000 1000 1000 1000 1000 1000 1000 1000 1000 1000.01 1000.01 1000.01 1000.01 1000.01 1000 1000 1000 1000 1000 1000 1000 1000 1000 1000 1000 1000 1000 1000 1000 1000 1000 1000 1000 1000 1000 1000 1000 1000 1000 1000 1000 1000 1000 1000 1000 1000 1000 1000 1000 1000 1000 1000.01 1000.01 1000.01 1000.01 1000 1000 1000 1000 1000 1000 1000 1000 1000 1000 1000 1000 1000 1000 1000 1000 1000 1000 1000 1000 1000 1000 1000 1000 1000 1000 1000 1000 1000 1000 1000 1000 1000 1000 1000 1000 1000 1000.01 1000.01 1000.01 1000.01 1000.01 1000 1000 1000 1000 1000 1000 1000 1000 1000 1000 1000 1000 1000 1000 1000 1000 1000 1000 1000 1000 1000 1000 1000 1000 1000 1000 1000 1000 1000 1000 1000 1000 1000 1000 1000 1000.01 1000.01 1000.01 1000.01 1000.01 1000.01 1000 1000 1000 1000 1000 1000 1000 1000 1000 1000 1000 1000 1000 1000 1000 1000 1000 1000 1000 1000 1000 1000 1000 1000 1000 1000 1000 1000 1000 1000 1000 1000 1000 1000 1000 1000.01 1000.01 1000.01 1000.01 1000.01 1000 1000 1000 1000 1000 1000 1000 1000 1000 1000 1000 1000 1000 1000 1000 1000 1000 1000 1000 1000 1000 1000 1000 1000 1000 1000 1000 1000 1000 1000 1000 1000 1000 1000 1000 1000 1000 1000.01 1000.01 1000.04 1000.03 1000.04 1000.01 1000.01 1000 1000.01 1000.01 1000 1000 1000.01 1000.01 1000.01 1000.01 1000.01 1000.01 1000.01 1000.01 1000.01 1000 1000.01 1000.01 1000 1000 1000.01 1000.01 1000 1000.01 1000.01 1000 1000 1000.01 1000.01 1000 1000 1000.01 1000.01 1000 1000.04 1000.03 1000.04 1000.03 1000.02 1000.03 1000.01 1000.01 1000.01 1000.01 1000.01 1000.01 1000.01 1000.01 1000.01 1000.01 1000.01 1000.01 1000.01 1000.01 1000.01 1000.01 1000.01 1000.01 1000.01 1000.01 1000.01 1000.01 1000.01 1000.01 1000.01 1000.01 1000.01 1000.01 1000.01 1000.01 1000.01 1000.01 1000.01 1000.01 1000.01 1000.03 1000.02 1000.03 1000.04 1000.03 1000.04 1000.01 1000.01 1000.01 1000.01 1000.01 1000.01 1000.01 1000.01 1000.01 1000.01 1000.01 1000.01 1000.01 1000.01 1000.01 1000.01 1000.01 1000.01 1000.01 1000.01 1000.01 1000.01 1000.01 1000.01 1000.01 1000.01 1000.01 1000.01 1000.01 1000.01 1000.01 1000.01 1000.01 1000.01 1000.01 1000.04 1000.03 1000.04 1000 1000 1000 1000 1000 1000 1000 1000 1000 1000 1000 1000 1000 1000 1000 1000 1000 1000 1000 1000 1000 1000 1000 1000 1000 1000 1000 1000 1000 1000 1000 1000 1000 1000 1000 1000 1000 1000 1000 1000 1000 1000 1000 1000 1000 1000 1000 1000 1000 1000 1000 1000 1000 1000 1000 1000 1000 1000 1000 1000 1000 1000 1000 1000 1000 1000 1000 1000 1000 1000 1000 1000 1000 1000 1000 1000 1000 1000 1000 1000 1000 1000 1000 1000 1000 1000 1000 1000 1000 1000 1000 1000 1000 1000 1000 1000 1000 1000 1000 1000 1000 1000 1000 1000 1000 1000 1000 1000 1000 1000 1000 1000 1000 1000 1000 1000 1000 1000 1000 1000 1000 1000 1000 1000 1000 1000 1000 1000 1000 1000 1000 1000 1000 1000 1000 1000 1000 1000 1000 1000 1000 1000 1000 1000 1000 1000 1000 1000 1000 1000 1000 1000 1000 1000 1000 1000 1000 1000 1000 1000 1000 1000 1000 1000 1000 1000 1000 1000 1000 1000 1000 1000 1000 1000 1000 1000 1000 1000 1000 1000 1000 1000 1000 1000 1000 1000 1000 1000 1000 1000 1000 1000 1000 1000 1000 1000 1000 1000 1000 1000 1000 1000 1000 1000 1000 1000 1000 1000 1000 1000 1000 1000 1000 1000 1000 1000 1000 1000 1000 1000 1000 1000 1000 1000 1000 1000 1000 1000 1000 1000 1000 1000 1000 1000 1000 1000 1000 1000 1000 1000 1000 1000 1000 1000 1000 1000 1000 1000 1000 1000 1000 1000 1000 1000 1000 1000 1000 1000 1000 1000 1000 1000 1000 1000 1000 1000 1000 1000 1000 1000 1000 1000 1000 1000 1000 1000 1000 1000 1000 1000 1000 1000 1000 1000 1000 1000 1000 1000 1000 1000 1000 1000 1000 1000 1000 1000 1000 1000 1000 1000 1000 1000 1000 1000 1000 1000 1000 1000 1000 1000 1000 1000 1000 1000 1000 1000 1000 1000 1000 1000 1000 1000 1000 1000 1000 1000 1000 1000 
</DataArray>
<DataArray type="Float32" Name="Velocity" NumberOfComponents="3" format="ascii">
0.0041238191 0.0061470317 0
0.00094295095 0.0058944109 0
-1.764389e-05 0.005864576 0
2.3490702e-05 0.0049837972 0
1.6154698e-06 0.0041839588 0
-4.4935367e-10 0.0029268083 0
1.818165e-07 0.0041942555 0
-2.0717648e-07 0.004194255 0
9.9075743e-09 0.0029290586 0
-2.3231226e-09 0.0029291096 0
4.1098994e-07 0.0041942527 0
-1.324262e-08 0.0041942541 0
-9.3108815e-07 0.0041942508 0
0 0.0051620533 0
-3.9512929e-07 0.0041942508 0
1.1729654e-06 0.0041942541 0
1.1066608e-08 0.0041942541 0
-2.6346288e-07 0.0041942541 0
4.998027e-07 0.0041942517 0
-7.4303862e-11 0.0029268085 0
3.3340143e-07 0.0041942531 0
-3.5126868e-07 0.0041942531 0
1.0995234e-08 0.0029290761 0
-1.0995234e-08 0.0029290761 0
3.4157233e-07 0.0041942531 0
-3.4157239e-07 0.0041942531 0
0 0.0029268085 0
3.4157239e-07 0.0041942531 0
-3.4157233e-07 0.0041942531 0
1.0995234e-08 0.0029290761 0
-1.0995234e-08 0.0029290761 0
3.4157233e-07 0.0041942531 0
-3.4157233e-07 0.0041942531 0
1.0995234e-08 0.0029290761 0
-1.0961784e-08 0.0029290761 0
3.6244549e-07 0.0041942531 0
-3.1982549e-07 0.0041942541 0
2.6110871e-07 0.0029302987 0
-0.00055926421 0.0040851817 0
-0.00092086446 0.0039090519 0
-0.0042755813 0.0042687571 0
0.0039598411 0.0012524726 0
0.0012057207 0.0013400711 0
0.00031798647 0.0013139753 0
1.6616868e-05 0.0012350946 0
1.6195583e-05 0.001251736 0
-2.6203646e-09 0.00083760958 0
-1.0978256e-07 0.001253273 0
1.0711585e-07 0.001253273 0
-4.6975339e-07 0.0009838267 0
1.9839911e-07 0.00098401774 0
-2.0182316e-07 0.001253273 0
-3.9448977e-07 0.0012532728 0
1.54105e-07 0.0012532717 0
1.2260261e-11 0.0014964031 0
-4.7019782e-07 0.0012532718 0
6.2505656e-08 0.0012532728 0
-2.5719859e-07 0.0012532728 0
4.4700789e-07 0.0012532742 0
1.8771343e-07 0.001253273 0
-1.590757e-10 0.00083761202 0
-4.1870021e-07 0.0012532726 0
4.169159e-07 0.0012532726 0
-6.0202393e-07 0.00098388933 0
6.0202393e-07 0.00098388933 0
-4.1789636e-07 0.0012532726 0
4.1789636e-07 0.0012532726 0
6.1845636e-15 0.00083761202 0
-4.1789636e-07 0.0012532726 0
4.1789636e-07 0.0012532726 0
-6.0202393e-07 0.00098388933 0
6.0202393e-07 0.00098388933 0
-4.1789636e-07 0.0012532726 0
4.1789636e-07 0.0012532726 0
-6.0202393e-07 0.00098388933 0
6.0205832e-07 0.00098388933 0
-4.1578562e-07 0.0012532726 0
4.2011504e-07 0.0012532726 0
-2.9313767e-05 0.0010064252 0
-0.00046846969 0.0010619438 0
-0.0010957028 0.0010952614 0
-0.0039060633 0.00088761043 0
0.0038361074 0.00019991041 0
0.0011499795 0.00029294548 0
0.00047835457 0.0001133978 0
2.2344875e-05 0.00011908207 0
9.2150258e-06 0.00011263319 0
2.283228e-06 2.20823e-05 0
9.3584799e-07 0.00011479239 0
1.441399e-06 0.00011478173 0
2.0658854e-07 2.2580463e-05 0
-1.7831444e-07 2.2592983e-05 0
-2.2375758e-07 0.00011478084 0
-4.8502159e-07 0.00011478022 0
4.5517325e-08 0.0001147752 0
7.9286621e-14 0.00012760524 0
-1.5540211e-07 0.0001147752 0
-3.5818036e-07 0.00011478025 0
2.8083383e-07 0.00011478022 0
-5.7359248e-08 0.00011478024 0
2.8044812e-07 0.00011478244 0
1.5589279e-08 2.211378e-05 0
5.0906044e-07 0.00011478287 0
3.4591892e-07 0.00011478059 0
-1.7736877e-08 2.25855e-05 0
1.7736877e-08 2.25855e-05 0
4.399152e-08 0.00011478059 0
-2.3100144e-07 0.00011478084 0
-1.9718671e-15 2.2117523e-05 0
2.3100144e-07 0.00011478084 0
-4.399152e-08 0.00011478059 0
-1.7736877e-08 2.25855e-05 0
1.7736877e-08 2.25855e-05 0
4.399152e-08 0.00011478059 0
-4.399152e-08 0.00011478059 0
-1.8037557e-08 2.25855e-05 0
-1.4524181e-06 2.2574159e-05 0
-1.8081895e-06 0.00011479191 0
-1.7815264e-06 0.00011480553 0
-2.3541856e-05 2.3827284e-05 0
-0.00037894034 0.00038583836 0
-0.0010460267 0.00042497783 0
-0.0040340484 0.00046791343 0
0.0041926191 0.00035367691 0
0.0011432151 0.00029877012 0
0.00030080465 0.00017563604 0
1.1464721e-05 1.6681181e-05 0
1.8310899e-07 5.2123164e-06 0
1.9924874e-11 2.1241571e-07 0
-4.9480935e-09 5.2852779e-06 0
4.5928421e-09 5.2852693e-06 0
-9.9377503e-12 2.1287174e-07 0
1.4213923e-11 2.1289654e-07 0
-4.6102566e-09 5.2852665e-06 0
4.6880153e-09 5.2852647e-06 0
-1.4554317e-07 5.2851642e-06 0
0 3.3461376e-05 0
1.4560653e-07 5.2851642e-06 0
-4.6056621e-09 5.2852647e-06 0
4.7689448e-09 5.2852647e-06 0
-4.8338911e-09 5.2852647e-06 0
4.6712301e-09 5.2852715e-06 0
-2.7215936e-12 2.1243508e-07 0
-4.8717461e-09 5.2852711e-06 0
4.6297846e-09 5.2852656e-06 0
-1.2562153e-11 2.1288128e-07 0
1.2562153e-11 2.1288128e-07 0
-4.7626618e-09 5.2852656e-06 0
4.7626618e-09 5.2852665e-06 0
0 2.1244146e-07 0
-4.7626618e-09 5.2852665e-06 0
4.7626618e-09 5.2852656e-06 0
-1.2562153e-11 2.1288128e-07 0
1.2562153e-11 2.1288128e-07 0
-4.7626618e-09 5.2852656e-06 0
4.7626618e-09 5.2852656e-06 0
-1.2562153e-11 2.1288128e-07 0
1.420018e-11 2.1287906e-07 0
-4.4781263e-09 5.2852683e-06 0
-1.2099536e-09 5.2852888e-06 0
-5.3882904e-06 2.811654e-07 0
-0.00011664694 2.0646046e-05 0
-0.0012506616 4.599784e-05 0
-0.0041975277 3.9349226e-05 0
0.0041837459 4.3854554e-05 0
0.001251412 4.1249848e-05 0
0.00011385205 1.7734395e-05 0
5.2410296e-06 1.870183e-07 0
1.0919682e-08 1.0913016e-08 0
0 4.8665099e-09 0
-4.7746509e-09 1.1017778e-08 0
4.7746509e-09 1.1017773e-08 0
0 4.8668216e-09 0
0 4.8668509e-09 0
-4.7746509e-09 1.1017773e-08 0
4.7746509e-09 1.1017769e-08 0
-4.7746234e-09 1.1017665e-08 0
0 7.8789628e-07 0
4.7746234e-09 1.1017665e-08 0
-4.7746509e-09 1.1017769e-08 0
4.7746509e-09 1.1017769e-08 0
-4.7746509e-09 1.1017769e-08 0
4.7746509e-09 1.1017775e-08 0
0 4.8665201e-09 0
-4.7746562e-09 1.1017775e-08 0
4.7746562e-09 1.1017772e-08 0
0 4.8668323e-09 0
0 4.8668323e-09 0
-4.7746562e-09 1.1017772e-08 0
4.7746562e-09 1.1017773e-08 0
0 4.866525e-09 0
-4.7746562e-09 1.1017773e-08 0
4.7746562e-09 1.1017772e-08 0
0 4.8668323e-09 0
0 4.8668323e-09 0
-4.7746562e-09 1.1017772e-08 0
4.7746562e-09 1.1017772e-08 0
0 4.8668323e-09 0
0 4.8668323e-09 0
-4.7746562e-09 1.1017773e-08 0
-1.2981275e-09 1.1017786e-08 0
-5.2170021e-06 4.1316386e-09 0
-0.0001126664 4.5809084e-06 0
-0.0012516998 2.6396126e-05 0
-0.0041837688 2.6173173e-05 0
0.0029292938 -2.1743435e-08 0
0.00099152722 8.3456314e-07 0
2.2592856e-05 1.8273129e-06 0
2.1291278e-07 2.4796783e-11 0
4.8668687e-09 0 0
0 0 0
-4.7746509e-09 0 0
4.7746509e-09 0 0
0 0 0
0 0 0
-4.7746509e-09 0 0
4.7746509e-09 0 0
-4.7746509e-09 0 0
0 3.7327175e-10 0
4.7746509e-09 0 0
-4.7746509e-09 0 0
4.7746509e-09 0 0
-4.7746509e-09 0 0
4.7746509e-09 0 0
0 0 0
-4.7746562e-09 0 0
4.7746562e-09 0 0
0 0 0
0 0 0
-4.7746562e-09 0 0
4.7746562e-09 0 0
0 0 0
-4.7746562e-09 0 0
4.7746562e-09 0 0
0 0 0
0 0 0
-4.7746562e-09 0 0
4.7746562e-09 0 0
0 0 0
0 0 0
-4.7746562e-09 0 0
4.7746562e-09 0 0
-2.1742493e-07 -1.7382276e-11 0
-2.2543401e-05 2.0634257e-06 0
-0.0009838026 2.766036e-07 0
-0.002929098 -7.5469817e-09 0
0.0041942555 1.8219167e-07 0
0.001253273 -1.0974068e-07 0
0.00011479614 1.4195306e-06 0
5.2852783e-06 -4.9425424e-09 0
1.1017778e-08 -4.7746509e-09 0
0 -4.7746509e-09 0
-4.7746509e-09 -4.7746509e-09 0
4.7746509e-09 -4.7746509e-09 0
0 -4.7746509e-09 0
0 -4.7746509e-09 0
-4.7746509e-09 -4.7746509e-09 0
4.7746509e-09 -4.7746509e-09 0
-4.7746509e-09 -4.7746509e-09 0
0 -4.7746509e-09 0
4.7746509e-09 -4.7746509e-09 0
-4.7746509e-09 -4.7746509e-09 0
4.7746509e-09 -4.7746509e-09 0
-4.7746509e-09 -4.7746509e-09 0
4.7746509e-09 -4.7746509e-09 0
0 -4.7746509e-09 0
-4.7746562e-09 -4.7746509e-09 0
4.7746562e-09 -4.7746509e-09 0
0 -4.7746509e-09 0
0 -4.7746509e-09 0
-4.7746562e-09 -4.7746509e-09 0
4.7746562e-09 -4.7746509e-09 0
0 -4.7746509e-09 0
-4.7746562e-09 -4.7746509e-09 0
4.7746562e-09 -4.7746509e-09 0
0 -4.7746509e-09 0
0 -4.7746509e-09 0
-4.7746562e-09 -4.7746509e-09 0
4.7746562e-09 -4.7746509e-09 0
0 -4.7746509e-09 0
0 -4.7746509e-09 0
-4.7746562e-09 -4.7746509e-09 0
-1.3973225e-09 -4.7746509e-09 0
-5.2899145e-06 -4.943844e-09 0
-0.0001147959 9.8926364e-07 0
-0.0012532455 -1.0974419e-07 0
-0.0041942471 1.8213898e-07 0
0.004194255 -2.0747282e-07 0
0.001253273 1.0710205e-07 0
0.00011478172 1.4109828e-06 0
5.2852693e-06 4.5908211e-09 0
1.1017773e-08 4.7746509e-09 0
0 4.7746509e-09 0
-4.7746509e-09 4.7746509e-09 0
4.7746509e-09 4.7746509e-09 0
0 4.7746509e-09 0
0 4.7746509e-09 0
-4.7746509e-09 4.7746509e-09 0
4.7746509e-09 4.7746509e-09 0
-4.7746509e-09 4.7746509e-09 0
0 4.7746509e-09 0
4.7746509e-09 4.7746509e-09 0
-4.7746509e-09 4.7746509e-09 0
4.7746509e-09 4.7746509e-09 0
-4.7746509e-09 4.7746509e-09 0
4.7746509e-09 4.7746509e-09 0
0 4.7746509e-09 0
-4.7746562e-09 4.7746509e-09 0
4.7746562e-09 4.7746509e-09 0
0 4.7746509e-09 0
0 4.7746509e-09 0
-4.7746562e-09 4.7746509e-09 0
4.7746562e-09 4.7746509e-09 0
0 4.7746509e-09 0
-4.7746562e-09 4.7746509e-09 0
4.7746562e-09 4.7746509e-09 0
0 4.7746509e-09 0
0 4.7746509e-09 0
-4.7746562e-09 4.7746509e-09 0
4.7746562e-09 4.7746509e-09 0
0 4.7746509e-09 0
0 4.7746509e-09 0
-4.7746562e-09 4.7746509e-09 0
-1.3973167e-09 4.7746509e-09 0
-5.2899054e-06 4.5990758e-09 0
-0.00011478411 1.4947224e-06 0
-0.0012532455 1.0715853e-07 0
-0.0041942471 -2.0675533e-07 0
0.0029290586 9.9075743e-09 0
0.0009838267 -4.6975339e-07 0
2.2580463e-05 2.0658854e-07 0
2.1287174e-07 -9.9377503e-12 0
4.8668216e-09 0 0
0 0 0
-4.7746509e-09 0 0
4.7746509e-09 0 0
0 0 0
0 0 0
-4.7746509e-09 0 0
4.7746509e-09 0 0
-4.7746509e-09 0 0
0 0 0
4.7746509e-09 0 0
-4.7746509e-09 0 0
4.7746509e-09 0 0
-4.7746509e-09 0 0
4.7746509e-09 0 0
0 0 0
-4.7746562e-09 0 0
4.7746562e-09 0 0
0 0 0
0 0 0
-4.7746562e-09 0 0
4.7746562e-09 0 0
0 0 0
-4.7746562e-09 0 0
4.7746562e-09 0 0
0 0 0
0 0 0
-4.7746562e-09 0 0
4.7746562e-09 0 0
0 0 0
0 0 0
-4.7746562e-09 0 0
4.7746562e-09 0 0
-2.1745323e-07 -8.9637421e-12 0
-2.2580354e-05 2.7059042e-07 0
-0.0009838104 -4.6970229e-07 0
-0.0029291019 9.9350288e-09 0
0.0029291096 -2.3231226e-09 0
0.00098401774 1.9839912e-07 0
2.2592983e-05 -1.7831444e-07 0
2.1289654e-07 1.4213923e-11 0
4.8668509e-09 0 0
0 0 0
-4.7746509e-09 0 0
4.7746509e-09 0 0
0 0 0
0 0 0
-4.7746509e-09 0 0
4.7746509e-09 0 0
-4.7746509e-09 0 0
0 0 0
4.7746509e-09 0 0
-4.7746509e-09 0 0
4.7746509e-09 0 0
-4.7746509e-09 0 0
4.7746509e-09 0 0
0 0 0
-4.7746562e-09 0 0
4.7746562e-09 0 0
0 0 0
0 0 0
-4.7746562e-09 0 0
4.7746562e-09 0 0
0 0 0
-4.7746562e-09 0 0
4.7746562e-09 0 0
0 0 0
0 0 0
-4.7746562e-09 0 0
4.7746562e-09 0 0
0 0 0
0 0 0
-4.7746562e-09 0 0
4.7746562e-09 0 0
-2.1747805e-07 1.4213157e-11 0
-2.2593407e-05 -1.7836193e-07 0
-0.00098400447 1.9839803e-07 0
-0.0029291539 -2.3227904e-09 0
0.0041942527 4.1098994e-07 0
0.001253273 -2.0182316e-07 0
0.00011478084 -2.2375758e-07 0
5.2852665e-06 -4.6102566e-09 0
1.1017773e-08 -4.7746509e-09 0
0 -4.7746509e-09 0
-4.7746509e-09 -4.7746509e-09 0
4.7746509e-09 -4.7746509e-09 0
0 -4.7746509e-09 0
0 -4.7746509e-09 0
-4.7746509e-09 -4.7746509e-09 0
4.7746509e-09 -4.7746509e-09 0
-4.7746509e-09 -4.7746509e-09 0
0 -4.7746509e-09 0
4.7746509e-09 -4.7746509e-09 0
-4.7746509e-09 -4.7746509e-09 0
4.7746509e-09 -4.7746509e-09 0
-4.7746509e-09 -4.7746509e-09 0
4.7746509e-09 -4.7746509e-09 0
0 -4.7746509e-09 0
-4.7746562e-09 -4.7746509e-09 0
4.7746562e-09 -4.7746509e-09 0
0 -4.7746509e-09 0
0 -4.7746509e-09 0