<?xml version="1.0" ?>

<VTKFile type="UnstructuredGrid" version="0.1" byte_order="BigEndian">

<UnstructuredGrid>

<Piece NumberOfPoints= " 2009 " NumberOfCells=" 2009 ">

<PointData Scalars="Pressure" Vectors="Velocity">

<DataArray type="Float32" Name="Pressure" format="ascii">

11.0511 13.4116 12.9825 10.7292 8.47602 15.5576 7.18849 7.18849 6.86661 6.86661 7.18849 7.18849 7.18849 7.40308 7.18849 7.18849 7.18849 7.18849 7.18849 6.65203 7.18849 7.18849 6.75932 6.75932 7.18849 7.18849 6.75932 7.18849 7.18849 6.75932 6.75932 7.18849 7.18849 6.75932 6.97391 13.0898 9.01249 8.15414 13.0898 10.5146 12.0168 19.0985 19.4205 17.489 10.3 14.8065 8.7979 9.22708 9.22708 7.61767 7.61767 9.22708 9.11979 9.11979 7.93955 9.11979 9.11979 9.11979 9.11979 9.22708 4.07701 9.22708 9.22708 7.61767 7.61767 9.22708 9.22708 4.07701 9.22708 9.22708 7.61767 7.61767 9.22708 9.22708 7.61767 7.61767 15.0211 11.373 8.58331 14.1627 14.6992 7.83225 18.6693 16.3087 16.9525 9.76356 11.5876 11.373 5.25722 5.25722 6.75932 6.75932 5.25722 5.25722 5.25722 2.14578 5.25722 5.25722 5.25722 5.25722 5.25722 4.50618 5.25722 5.25722 6.65203 6.65203 5.25722 5.25722 4.50618 5.25722 5.25722 6.65203 6.65203 5.25722 5.25722 6.75932 6.86661 11.5876 9.33438 6.86661 16.5233 12.7679 17.5963 16.3087 11.6949 10.1927 2.89681 4.2916 16.3087 2.14578 2.03849 6.11556 6.11556 1.9312 2.03849 1.9312 6.11556 1.9312 1.9312 1.9312 1.9312 1.9312 6.11556 1.9312 2.03849 6.11556 6.11556 1.9312 1.9312 6.11556 1.9312 1.9312 6.11556 6.11556 1.9312 1.9312 6.11556 6.22285 11.2657 4.50618 7.29579 8.26143 10.7292 11.0511 7.61767 9.76356 8.04684 0.75102 2.57494 8.47602 1.18018 1.07289 1.18018 1.18018 1.07289 1.07289 1.07289 0.107288 1.07289 1.07289 1.07289 1.07289 1.07289 1.18018 1.07289 1.07289 1.18018 1.18018 1.07289 1.07289 1.18018 1.07289 1.07289 1.18018 1.18018 1.07289 1.07289 1.18018 1.18018 7.83225 3.32598 4.2916 8.26143 10.3 8.58331 10.5146 5.79368 5.90098 7.83225 7.72496 1.60933 6.75932 6.75932 0 0 6.75932 6.75932 6.75932 0.214577 6.75932 6.75932 6.75932 6.75932 6.75932 0 6.75932 6.75932 0 0 6.75932 6.75932 0 6.75932 6.75932 0 0 6.75932 6.75932 0 1.50204 12.2314 8.36873 10.9438 12.9825 12.9825 10.6219 7.72496 9.97815 6.97391 7.83225 1.71662 6.97391 0 0 0 0 0 0 0 7.0812 0 0 0 0 0 0 0 0 0 0 0 0 0 0 0 0 0 0 0 0 0 7.40308 1.18018 2.03849 5.25722 9.22708 7.61767 10.8365 14.1627 14.9138 2.89681 1.18018 10.6219 0 0 0 0 0 0 0 0.536443 0 0 0 0 0 0 0 0 0 0 0 0 0 0 0 0 0 0 0 0 0 6.75932 1.07289 2.03849 5.25722 9.22708 7.18849 6.86661 8.04684 7.29579 6.11556 1.18018 2.78952 0 0 0 0 0 0 0 0 0 0 0 0 0 0 0 0 0 0 0 0 0 0 0 0 0 0 0 0 0 0 1.18018 6.11556 6.75932 7.61767 6.86661 6.86661 7.61767 6.75932 6.11556 1.18018 0 0 0 0 0 0 0 0 0 0 0 0 0 0 0 0 0 0 0 0 0 0 0 0 0 0 0 0 0 0 0 1.18018 6.11556 6.75932 7.61767 6.86661 7.18849 9.22708 5.25722 2.03849 1.07289 6.75932 0 0 0 0 0 0 0 0 0 0 0 0 0 0 0 0 0 0 0 0 0 0 0 0 0 0 0 0 0 6.75932 1.07289 2.03849 5.25722 9.22708 7.18849 7.18849 9.11979 5.25722 2.03849 1.07289 6.75932 0 0 0 0 0 0 0 0 0 0 0 0 0 0 0 0 0 0 0 0 0 0 0 0 0 0 0 0 0 6.75932 1.07289 2.03849 5.25722 9.11979 7.18849 7.18849 9.11979 5.25722 1.9312 1.07289 6.75932 0 0 0 0 0 0 0 0 0 0 0 0 0 0 0 0 0 0 0 0 0 0 0 0 0 0 0 0 0 6.75932 1.07289 1.9312 5.25722 9.11979 7.18849 7.40308 7.93955 2.14578 6.11556 0.107288 0.214577 7.0812 0.536443 0 0 0 0 0 0 0 0 0 0 0 0 0 0 0 0 0 0 0 0 0 0 0 0 0 0.536443 7.0812 0.214577 0.107288 6.11556 2.14578 7.93955 7.40308 7.18849 9.11979 5.25722 1.9312 1.07289 6.75932 0 0 0 0 0 0 0 0 0 0 0 0 0 0 0 0 0 0 0 0 0 0 0 0 0 0 0 0 0 6.75932 1.07289 1.9312 5.25722 9.11979 7.18849 7.18849 9.11979 5.25722 1.9312 1.07289 6.75932 0 0 0 0 0 0 0 0 0 0 0 0 0 0 0 0 0 0 0 0 0 0 0 0 0 0 0 0 0 6.75932 1.07289 1.9312 5.25722 9.11979 7.18849 7.18849 9.11979 5.25722 1.9312 1.07289 6.75932 0 0 0 0 0 0 0 0 0 0 0 0 0 0 0 0 0 0 0 0 0 0 0 0 0 0 0 0 0 6.75932 1.07289 1.9312 5.25722 9.11979 7.18849 7.18849 9.11979 5.25722 1.9312 1.07289 6.75932 0 0 0 0 0 0 0 0 0 0 0 0 0 0 0 0 0 0 0 0 0 0 0 0 0 0 0 0 0 6.75932 1.07289 1.9312 5.25722 9.11979 7.18849 7.18849 9.22708 5.25722 1.9312 1.07289 6.75932 0 0 0 0 0 0 0 0 0 0 0 0 0 0 0 0 0 0 0 0 0 0 0 0 0 0 0 0 0 6.75932 1.07289 1.9312 5.25722 9.22708 7.18849 6.65203 4.07701 4.50618 6.11556 1.18018 0 0 0 0 0 0 0 0 0 0 0 0 0 0 0 0 0 0 0 0 0 0 0 0 0 0 0 0 0 0 0 1.18018 6.11556 4.50618 4.07701 6.65203 7.18849 9.22708 5.25722 1.9312 1.07289 6.75932 0 0 0 0 0 0 0 0 0 0 0 0 0 0 0 0 0 0 0 0 0 0 0 0 0 0 0 0 0 6.75932 1.07289 1.9312 5.25722 9.22708 7.18849 7.18849 9.22708 5.25722 2.03849 1.07289 6.75932 0 0 0 0 0 0 0 0 0 0 0 0 0 0 0 0 0 0 0 0 0 0 0 0 0 0 0 0 0 6.75932 1.07289 2.03849 5.25722 9.22708 7.18849 6.75932 7.61767 6.65203 6.11556 1.18018 0 0 0 0 0 0 0 0 0 0 0 0 0 0 0 0 0 0 0 0 0 0 0 0 0 0 0 0 0 0 0 1.18018 6.11556 6.65203 7.61767 6.75932 6.75932 7.61767 6.65203 6.11556 1.18018 0 0 0 0 0 0 0 0 0 0 0 0 0 0 0 0 0 0 0 0 0 0 0 0 0 0 0 0 0 0 0 1.18018 6.11556 6.65203 7.61767 6.75932 7.18849 9.22708 5.25722 1.9312 1.07289 6.75932 0 0 0 0 0 0 0 0 0 0 0 0 0 0 0 0 0 0 0 0 0 0 0 0 0 0 0 0 0 6.75932 1.07289 1.9312 5.25722 9.22708 7.18849 7.18849 9.22708 5.25722 1.9312 1.07289 6.75932 0 0 0 0 0 0 0 0 0 0 0 0 0 0 0 0 0 0 0 0 0 0 0 0 0 0 0 0 0 6.75932 1.07289 1.9312 5.25722 9.22708 7.18849 6.75932 4.07701 4.50618 6.11556 1.18018 0 0 0 0 0 0 0 0 0 0 0 0 0 0 0 0 0 0 0 0 0 0 0 0 0 0 0 0 0 0 0 1.18018 6.11556 4.50618 4.07701 6.75932 7.18849 9.22708 5.25722 1.9312 1.07289 6.75932 0 0 0 0 0 0 0 0 0 0 0 0 0 0 0 0 0 0 0 0 0 0 0 0 0 0 0 0 0 6.75932 1.07289 1.9312 5.25722 9.22708 7.18849 7.18849 9.22708 5.25722 1.9312 1.07289 6.75932 0 0 0 0 0 0 0 0 0 0 0 0 0 0 0 0 0 0 0 0 0 0 0 0 0 0 0 0 0 6.75932 1.07289 1.9312 5.25722 9.22708 7.18849 6.75932 7.61767 6.65203 6.11556 1.18018 0 0 0 0 0 0 0 0 0 0 0 0 0 0 0 0 0 0 0 0 0 0 0 0 0 0 0 0 0 0 0 1.18018 6.11556 6.65203 7.61767 6.75932 6.75932 7.61767 6.65203 6.11556 1.18018 0 0 0 0 0 0 0 0 0 0 0 0 0 0 0 0 0 0 0 0 0 0 0 0 0 0 0 0 0 0 0 1.18018 6.11556 6.65203 7.61767 6.75932 7.18849 9.22708 5.25722 1.9312 1.07289 6.75932 0 0 0 0 0 0 0 0 0 0 0 0 0 0 0 0 0 0 0 0 0 0 0 0 0 0 0 0 0 6.75932 1.07289 1.9312 5.25722 9.22708 7.18849 7.18849 9.22708 5.25722 1.9312 1.07289 6.75932 0 0 0 0 0 0 0 0 0 0 0 0 0 0 0 0 0 0 0 0 0 0 0 0 0 0 0 0 0 6.75932 1.07289 1.9312 5.25722 9.22708 7.18849 6.75932 7.61767 6.75932 6.11556 1.18018 0 0 0 0 0 0 0 0 0.536443 0 0 0 0 0 0 0 0 0 0 0 0 0 0 0 0 0 0 0 0 0 0 1.18018 6.11556 6.65203 7.61767 6.86661 6.97391 7.61767 6.86661 6.22285 1.18018 1.50204 0 0 0 0 0 0 0 7.0812 0 0 0 0 0 0 0 0 0 0 0 0 0 0 0 0 0 0 0 0 0 1.07289 1.18018 6.22285 6.75932 7.61767 6.97391 13.0898 15.0211 11.5876 11.2657 7.83225 12.2314 7.40308 6.75932 0 0 6.75932 6.75932 6.75932 0.214577 6.75932 6.75932 6.75932 6.75932 6.75932 0 6.75932 6.75932 0 0 6.75932 6.75932 0 6.75932 6.75932 0 0 6.75932 6.75932 0 1.07289 18.4547 7.72496 6.86661 11.6949 13.8408 17.8109 9.01249 11.373 9.33438 4.50618 3.32598 8.36873 1.18018 1.07289 1.18018 1.18018 1.07289 1.07289 1.07289 0.107288 1.07289 1.07289 1.07289 1.07289 1.07289 1.18018 1.07289 1.07289 1.18018 1.18018 1.07289 1.07289 1.18018 1.07289 1.07289 1.18018 1.18018 1.07289 1.07289 1.18018 1.18018 7.72496 3.43327 4.82805 8.58331 10.9438 7.83225 8.15414 8.58331 6.86661 7.29579 4.2916 10.9438 2.03849 2.03849 6.11556 6.11556 2.03849 2.03849 1.9312 6.11556 1.9312 1.9312 1.9312 1.9312 1.9312 6.11556 1.9312 2.03849 6.11556 6.11556 1.9312 1.9312 6.11556 1.9312 1.9312 6.11556 6.11556 1.9312 1.9312 6.11556 6.22285 6.86661 4.82805 12.7679 7.40308 9.01249 13.197 13.0898 14.1627 16.5233 8.26143 8.26143 12.9825 5.25722 5.25722 6.75932 6.75932 5.25722 5.25722 5.25722 2.14578 5.25722 5.25722 5.25722 5.25722 5.25722 4.50618 5.25722 5.25722 6.65203 6.65203 5.25722 5.25722 4.50618 5.25722 5.25722 6.65203 6.65203 5.25722 5.25722 6.65203 6.75932 11.6949 8.58331 7.40308 16.416 14.4846 11.8022 10.5146 14.6992 12.7679 10.7292 10.3 12.9825 9.22708 9.22708 7.61767 7.61767 9.22708 9.11979 9.11979 7.93955 9.11979 9.11979 9.11979 9.11979 9.22708 4.07701 9.22708 9.22708 7.61767 7.61767 9.22708 9.22708 4.07701 9.22708 9.22708 7.61767 7.61767 9.22708 9.22708 7.61767 7.61767 13.8408 10.9438 9.01249 14.4846 15.2357 7.61767 12.0168 7.83225 17.5963 11.0511 8.58331 10.6219 7.61767 7.18849 6.86661 6.86661 7.18849 7.18849 7.18849 7.40308 7.18849 7.18849 7.18849 7.18849 7.18849 6.65203 7.18849 7.18849 6.75932 6.75932 7.18849 7.18849 6.75932 7.18849 7.18849 6.75932 6.75932 7.18849 7.18849 6.86661 6.97391 17.8109 7.83225 13.197 11.8022 7.61767 16.2014 0.1 0.1 0.1 0.1 0.1 0.1 0.1 0.1 0.1 0.1 0.1 0.1 0.1 0.1 0.1 0.1 0.1 0.1 0.1 0.1 0.1 0.1 0.1 0.1 0.1 0.1 0.1 0.1 0.1 0.1 0.1 0.1 0.1 0.1 0.1 0.1 0.1 0.1 0.1 0.1 0.1 0.1 0.1 0.1 0.1 0.1 0.1 0.1 0.1 0.1 0.1 0.1 0.1 0.1 0.1 0.1 0.1 0.1 0.1 0.1 0.1 0.1 0.1 0.1 0.1 0.1 0.1 0.1 0.1 0.1 0.1 0.1 0.1 0.1 0.1 0.1 0.1 0.1 0.1 0.1 0.1 0.1 0.1 0.1 0.1 0.1 0.1 0.1 0.1 0.1 0.1 0.1 0.1 0.1 0.1 0.1 0.1 0.1 0.1 0.1 0.1 0.1 0.1 0.1 0.1 0.1 0.1 0.1 0.1 0.1 0.1 0.1 0.1 0.1 0.1 0.1 0.1 0.1 0.1 0.1 0.1 0.1 0.1 0.1 0.1 0.1 0.1 0.1 0.1 0.1 0.1 0.1 0.1 0.1 0.1 0.1 0.1 0.1 0.1 0.1 0.1 0.1 0.1 0.1 0.1 0.1 0.1 0.1 0.1 0.1 0.1 0.1 0.1 0.1 0.1 0.1 0.1 0.1 0.1 0.1 0.1 0.1 0.1 0.1 0.1 0.1 0.1 0.1 0.1 0.1 0.1 0.1 0.1 0.1 0.1 0.1 0.1 0.1 0.1 0.1 0.1 0.1 0.1 0.1 0.1 0.1 0.1 0.1 0.1 0.1 0.1 0.1 0.1 0.1 0.1 0.1 0.1 0.1 0.1 0.1 0.1 0.1 0.1 0.1 0.1 0.1 0.1 0.1 0.1 0.1 0.1 0.1 0.1 0.1 0.1 0.1 0.1 0.1 0.1 0.1 0.1 0.1 0.1 0.1 0.1 0.1 0.1 0.1 0.1 0.1 0.1 0.1 0.1 0.1 0.1 0.1 0.1 0.1 0.1 0.1 0.1 0.1 0.1 0.1 0.1 0.1 0.1 0.1 0.1 0.1 0.1 0.1 0.1 0.1 0.1 0.1 0.1 0.1 0.1 0.1 0.1 0.1 0.1 0.1 0.1 0.1 0.1 0.1 0.1 0.1 0.1 0.1 0.1 0.1 0.1 0.1 0.1 0.1 0.1 0.1 0.1 0.1 0.1 0.1 0.1 0.1 0.1 0.1 0.1 0.1 0.1 0.1 0.1 0.1 0.1 0.1 0.1 0.1 0.1 0.1 0.1 0.1 0.1 0.1 0.1 0.1 0.1 0.1 0.1 0.1 0.1 0.1 0.1 0.1 0.1 0.1 0.1 0.1 0.1 0.1 0.1 0.1 0.1 0.1 0.1 0.1 0.1 0.1 
</DataArray>

<DataArray type="Float32" Name="Density" format="ascii">
1000.01 1000.01 1000.01 1000.01 1000.01 1000.02 1000.01 1000.01 1000.01 1000.01 1000.01 1000.01 1000.01 1000.01 1000.01 1000.01 1000.01 1000.01 1000.01 1000.01 1000.01 1000.01 1000.01 1000.01 1000.01 1000.01 1000.01 1000.01 1000.01 1000.01 1000.01 1000.01 1000.01 1000.01 1000.01 1000.01 1000.01 1000.01 1000.01 1000.01 1000.01 1000.02 1000.02 1000.02 1000.01 1000.02 1000.01 1000.01 1000.01 1000.01 1000.01 1000.01 1000.01 1000.01 1000.01 1000.01 1000.01 1000.01 1000.01 1000.01 1000 1000.01 1000.01 1000.01 1000.01 1000.01 1000.01 1000 1000.01 1000.01 1000.01 1000.01 1000.01 1000.01 1000.01 1000.01 1000.02 1000.01 1000.01 1000.02 1000.02 1000.01 1000.02 1000.02 1000.02 1000.01 1000.01 1000.01 1000.01 1000.01 1000.01 1000.01 1000.01 1000.01 1000.01 1000 1000.01 1000.01 1000.01 1000.01 1000.01 1000.01 1000.01 1000.01 1000.01 1000.01 1000.01 1000.01 1000.01 1000.01 1000.01 1000.01 1000.01 1000.01 1000.01 1000.01 1000.01 1000.01 1000.01 1000.01 1000.02 1000.01 1000.02 1000.02 1000.01 1000.01 1000 1000 1000.02 1000 1000 1000.01 1000.01 1000 1000 1000 1000.01 1000 1000 1000 1000 1000 1000.01 1000 1000 1000.01 1000.01 1000 1000 1000.01 1000 1000 1000.01 1000.01 1000 1000 1000.01 1000.01 1000.01 1000.01 1000.01 1000.01 1000.01 1000.01 1000.01 1000.01 1000.01 1000 1000 1000.01 1000 1000 1000 1000 1000 1000 1000 1000 1000 1000 1000 1000 1000 1000 1000 1000 1000 1000 1000 1000 1000 1000 1000 1000 1000 1000 1000 1000 1000 1000.01 1000 1000 1000.01 1000.01 1000.01 1000.01 1000.01 1000.01 1000.01 1000.01 1000 1000.01 1000.01 1000 1000 1000.01 1000.01 1000.01 1000 1000.01 1000.01 1000.01 1000.01 1000.01 1000 1000.01 1000.01 1000 1000 1000.01 1000.01 1000 1000.01 1000.01 1000 1000 1000.01 1000.01 1000 1000 1000.01 1000.01 1000.01 1000.01 1000.01 1000.01 1000.01 1000.01 1000.01 1000.01 1000 1000.01 1000 1000 1000 1000 1000 1000 1000 1000.01 1000 1000 1000 1000 1000 1000 1000 1000 1000 1000 1000 1000 1000 1000 1000 1000 1000 1000 1000 1000 1000 1000.01 1000 1000 1000.01 1000.01 1000.01 1000.01 1000.02 1000.02 1000 1000 1000.01 1000 1000 1000 1000 1000 1000 1000 1000 1000 1000 1000 1000 1000 1000 1000 1000 1000 1000 1000 1000 1000 1000 1000 1000 1000 1000 1000 1000 1000 1000.01 1000 1000 1000.01 1000.01 1000.01 1000.01 1000.01 1000.01 1000.01 1000 1000 1000 1000 1000 1000 1000 1000 1000 1000 1000 1000 1000 1000 1000 1000 1000 1000 1000 1000 1000 1000 1000 1000 1000 1000 1000 1000 1000 1000 1000 1000 1000 1000.01 1000.01 1000.01 1000.01 1000.01 1000.01 1000.01 1000.01 1000 1000 1000 1000 1000 1000 1000 1000 1000 1000 1000 1000 1000 1000 1000 1000 1000 1000 1000 1000 1000 1000 1000 1000 1000 1000 1000 1000 1000 1000 1000 1000 1000 1000.01 1000.01 1000.01 1000.01 1000.01 1000.01 1000.01 1000 1000 1000.01 1000 1000 1000 1000 1000 1000 1000 1000 1000 1000 1000 1000 1000 1000 1000 1000 1000 1000 1000 1000 1000 1000 1000 1000 1000 1000 1000 1000 1000 1000.01 1000 1000 1000.01 1000.01 1000.01 1000.01 1000.01 1000.01 1000 1000 1000.01 1000 1000 1000 1000 1000 1000 1000 1000 1000 1000 1000 1000 1000 1000 1000 1000 1000 1000 1000 1000 1000 1000 1000 1000 1000 1000 1000 1000 1000 1000.01 1000 1000 1000.01 1000.01 1000.01 1000.01 1000.01 1000.01 1000 1000 1000.01 1000 1000 1000 1000 1000 1000 1000 1000 1000 1000 1000 1000 1000 1000 1000 1000 1000 1000 1000 1000 1000 1000 1000 1000 1000 1000 1000 1000 1000 1000.01 1000 1000 1000.01 1000.01 1000.01 1000.01 1000.01 1000 1000.01 1000 1000 1000.01 1000 1000 1000 1000 1000 1000 1000 1000 1000 1000 1000 1000 1000 1000 1000 1000 1000 1000 1000 1000 1000 1000 1000 1000 1000 1000 1000 1000.01 1000 1000 1000.01 1000 1000.01 1000.01 1000.01 1000.01 1000.01 1000 1000 1000.01 1000 1000 1000 1000 1000 1000 1000 1000 1000 1000 1000 1000 1000 1000 1000 1000 1000 1000 1000 1000 1000 1000 1000 1000 1000 1000 1000 1000 1000 1000.01 1000 1000 1000.01 1000.01 1000.01 1000.01 1000.01 1000.01 1000 1000 1000.01 1000 1000 1000 1000 1000 1000 1000 1000 1000 1000 1000 1000 1000 1000 1000 1000 1000 1000 1000 1000 1000 1000 1000 1000 1000 1000 1000 1000 1000 1000.01 1000 1000 1000.01 1000.01 1000.01 1000.01 1000.01 1000.01 1000 1000 1000.01 1000 1000 1000 1000 1000 1000 1000 1000 1000 1000 1000 1000 1000 1000 1000 1000 1000 1000 1000 1000 1000 1000 1000 1000 1000 1000 1000 1000 1000 1000.01 1000 1000 1000.01 1000.01 1000.01 1000.01 1000.01 1000.01 1000 1000 1000.01 1000 1000 1000 1000 1000 1000 1000 1000 1000 1000 1000 1000 1000 1000 1000 1000 1000 1000 1000 1000 1000 1000 1000 1000 1000 1000 1000 1000 1000 1000.01 1000 1000 1000.01 1000.01 1000.01 1000.01 1000.01 1000.01 1000 1000 1000.01 1000 1000 1000 1000 1000 1000 1000 1000 1000 1000 1000 1000 1000 1000 1000 1000 1000 1000 1000 1000 1000 1000 1000 1000 1000 1000 1000 1000 1000 1000.01 1000 1000 1000.01 1000.01 1000.01 1000.01 1000 1000.01 1000.01 1000 1000 1000 1000 1000 1000 1000 1000 1000 1000 1000 1000 1000 1000 1000 1000 1000 1000 1000 1000 1000 1000 1000 1000 1000 1000 1000 1000 1000 1000 1000 1000 1000 1000.01 1000.01 1000 1000.01 1000.01 1000.01 1000.01 1000 1000 1000.01 1000 1000 1000 1000 1000 1000 1000 1000 1000 1000 1000 1000 1000 1000 1000 1000 1000 1000 1000 1000 1000 1000 1000 1000 1000 1000 1000 1000 1000 1000.01 1000 1000 1000.01 1000.01 1000.01 1000.01 1000.01 1000.01 1000 1000 1000.01 1000 1000 1000 1000 1000 1000 1000 1000 1000 1000 1000 1000 1000 1000 1000 1000 1000 1000 1000 1000 1000 1000 1000 1000 1000 1000 1000 1000 1000 1000.01 1000 1000 1000.01 1000.01 1000.01 1000.01 1000.01 1000.01 1000.01 1000 1000 1000 1000 1000 1000 1000 1000 1000 1000 1000 1000 1000 1000 1000 1000 1000 1000 1000 1000 1000 1000 1000 1000 1000 1000 1000 1000 1000 1000 1000 1000 1000 1000.01 1000.01 1000.01 1000.01 1000.01 1000.01 1000.01 1000.01 1000 1000 1000 1000 1000 1000 1000 1000 1000 1000 1000 1000 1000 1000 1000 1000 1000 1000 1000 1000 1000 1000 1000 1000 1000 1000 1000 1000 1000 1000 1000 1000 1000 1000.01 1000.01 1000.01 1000.01 1000.01 1000.01 1000.01 1000 1000 1000.01 1000 1000 1000 1000 1000 1000 1000 1000 1000 1000 1000 1000 1000 1000 1000 1000 1000 1000 1000 1000 1000 1000 1000 1000 1000 1000 1000 1000 1000 1000.01 1000 1000 1000.01 1000.01 1000.01 1000.01 1000.01 1000.01 1000 1000 1000.01 1000 1000 1000 1000 1000 1000 1000 1000 1000 1000 1000 1000 1000 1000 1000 1000 1000 1000 1000 1000 1000 1000 1000 1000 1000 1000 1000 1000 1000 1000.01 1000 1000 1000.01 1000.01 1000.01 1000.01 1000 1000.01 1000.01 1000 1000 1000 1000 1000 1000 1000 1000 1000 1000 1000 1000 1000 1000 1000 1000 1000 1000 1000 1000 1000 1000 1000 1000 1000 1000 1000 1000 1000 1000 1000 1000 1000 1000.01 1000.01 1000 1000.01 1000.01 1000.01 1000.01 1000 1000 1000.01 1000 1000 1000 1000 1000 1000 1000 1000 1000 1000 1000 1000 1000 1000 1000 1000 1000 1000 1000 1000 1000 1000 1000 1000 1000 1000 1000 1000 1000 1000.01 1000 1000 1000.01 1000.01 1000.01 1000.01 1000.01 1000.01 1000 1000 1000.01 1000 1000 1000 1000 1000 1000 1000 1000 1000 1000 1000 1000 1000 1000 1000 1000 1000 1000 1000 1000 1000 1000 1000 1000 1000 1000 1000 1000 1000 1000.01 1000 1000 1000.01 1000.01 1000.01 1000.01 1000.01 1000.01 1000.01 1000 1000 1000 1000 1000 1000 1000 1000 1000 1000 1000 1000 1000 1000 1000 1000 1000 1000 1000 1000 1000 1000 1000 1000 1000 1000 1000 1000 1000 1000 1000 1000 1000 1000.01 1000.01 1000.01 1000.01 1000.01 1000.01 1000.01 1000.01 1000 1000 1000 1000 1000 1000 1000 1000 1000 1000 1000 1000 1000 1000 1000 1000 1000 1000 1000 1000 1000 1000 1000 1000 1000 1000 1000 1000 1000 1000 1000 1000 1000 1000.01 1000.01 1000.01 1000.01 1000.01 1000.01 1000.01 1000 1000 1000.01 1000 1000 1000 1000 1000 1000 1000 1000 1000 1000 1000 1000 1000 1000 1000 1000 1000 1000 1000 1000 1000 1000 1000 1000 1000 1000 1000 1000 1000 1000.01 1000 1000 1000.01 1000.01 1000.01 1000.01 1000.01 1000.01 1000 1000 1000.01 1000 1000 1000 1000 1000 1000 1000 1000 1000 1000 1000 1000 1000 1000 1000 1000 1000 1000 1000 1000 1000 1000 1000 1000 1000 1000 1000 1000 1000 1000.01 1000 1000 1000.01 1000.01 1000.01 1000.01 1000.01 1000.01 1000.01 1000 1000 1000 1000 1000 1000 1000 1000 1000 1000 1000 1000 1000 1000 1000 1000 1000 1000 1000 1000 1000 1000 1000 1000 1000 1000 1000 1000 1000 1000 1000 1000 1000 1000.01 1000.01 1000.01 1000.01 1000.01 1000.01 1000.01 1000.01 1000 1000 1000 1000 1000 1000 1000 1000 1000 1000.01 1000 1000 1000 1000 1000 1000 1000 1000 1000 1000 1000 1000 1000 1000 1000 1000 1000 1000 1000 1000 1000 1000 1000 1000.01 1000.01 1000.01 1000.01 1000.01 1000.02 1000.01 1000.01 1000.01 1000.01 1000.01 1000.01 1000 1000 1000.01 1000.01 1000.01 1000 1000.01 1000.01 1000.01 1000.01 1000.01 1000 1000.01 1000.01 1000 1000 1000.01 1000.01 1000 1000.01 1000.01 1000 1000 1000.01 1000.01 1000 1000 1000.02 1000.01 1000.01 1000.01 1000.02 1000.02 1000.01 1000.01 1000.01 1000.01 1000 1000.01 1000 1000 1000 1000 1000 1000 1000 1000 1000 1000 1000 1000 1000 1000 1000 1000 1000 1000 1000 1000 1000 1000 1000 1000 1000 1000 1000 1000 1000 1000.01 1000 1000.01 1000.01 1000.01 1000.01 1000.01 1000.01 1000.01 1000.01 1000 1000.01 1000 1000 1000.01 1000.01 1000 1000 1000 1000.01 1000 1000 1000 1000 1000 1000.01 1000 1000 1000.01 1000.01 1000 1000 1000.01 1000 1000 1000.01 1000.01 1000 1000 1000.01 1000.01 1000.01 1000.01 1000.01 1000.01 1000.01 1000.01 1000.01 1000.02 1000.02 1000.01 1000.01 1000.01 1000.01 1000.01 1000.01 1000.01 1000.01 1000.01 1000.01 1000 1000.01 1000.01 1000.01 1000.01 1000.01 1000.01 1000.01 1000.01 1000.01 1000.01 1000.01 1000.01 1000.01 1000.01 1000.01 1000.01 1000.01 1000.01 1000.01 1000.01 1000.01 1000.01 1000.01 1000.01 1000.02 1000.02 1000.01 1000.01 1000.02 1000.01 1000.01 1000.01 1000.01 1000.01 1000.01 1000.01 1000.01 1000.01 1000.01 1000.01 1000.01 1000.01 1000.01 1000.01 1000.01 1000.01 1000 1000.01 1000.01 1000.01 1000.01 1000.01 1000.01 1000 1000.01 1000.01 1000.01 1000.01 1000.01 1000.01 1000.01 1000.01 1000.02 1000.01 1000.01 1000.02 1000.02 1000.01 1000.01 1000.01 1000.02 1000.01 1000.01 1000.01 1000.01 1000.01 1000.01 1000.01 1000.01 1000.01 1000.01 1000.01 1000.01 1000.01 1000.01 1000.01 1000.01 1000.01 1000.01 1000.01 1000.01 1000.01 1000.01 1000.01 1000.01 1000.01 1000.01 1000.01 1000.01 1000.01 1000.01 1000.01 1000.01 1000.02 1000.01 1000.01 1000.01 1000.01 1000.02 1000 1000 1000 1000 1000 1000 1000 1000 1000 1000 1000 1000 1000 1000 1000 1000 1000 1000 1000 1000 1000 1000 1000 1000 1000 1000 1000 1000 1000 1000 1000 1000 1000 1000 1000 1000 1000 1000 1000 1000 1000 1000 1000 1000 1000 1000 1000 1000 1000 1000 1000 1000 1000 1000 1000 1000 1000 1000 1000 1000 1000 1000 1000 1000 1000 1000 1000 1000 1000 1000 1000 1000 1000 1000 1000 1000 1000 1000 1000 1000 1000 1000 1000 1000 1000 1000 1000 1000 1000 1000 1000 1000 1000 1000 1000 1000 1000 1000 1000 1000 1000 1000 1000 1000 1000 1000 1000 1000 1000 1000 1000 1000 1000 1000 1000 1000 1000 1000 1000 1000 1000 1000 1000 1000 1000 1000 1000 1000 1000 1000 1000 1000 1000 1000 1000 1000 1000 1000 1000 1000 1000 1000 1000 1000 1000 1000 1000 1000 1000 1000 1000 1000 1000 1000 1000 1000 1000 1000 1000 1000 1000 1000 1000 1000 1000 1000 1000 1000 1000 1000 1000 1000 1000 1000 1000 1000 1000 1000 1000 1000 1000 1000 1000 1000 1000 1000 1000 1000 1000 1000 1000 1000 1000 1000 1000 1000 1000 1000 1000 1000 1000 1000 1000 1000 1000 1000 1000 1000 1000 1000 1000 1000 1000 1000 1000 1000 1000 1000 1000 1000 1000 1000 1000 1000 1000 1000 1000 1000 1000 1000 1000 1000 1000 1000 1000 1000 1000 1000 1000 1000 1000 1000 1000 1000 1000 1000 1000 1000 1000 1000 1000 1000 1000 1000 1000 1000 1000 1000 1000 1000 1000 1000 1000 1000 1000 1000 1000 1000 1000 1000 1000 1000 1000 1000 1000 1000 1000 1000 1000 1000 1000 1000 1000 1000 1000 1000 1000 1000 1000 1000 1000 1000 1000 1000 1000 1000 1000 1000 1000 1000 1000 1000 1000 1000 1000 1000 1000 1000 1000 1000 1000 1000 1000 1000 1000 1000 1000 1000 1000 1000 1000 1000 1000 1000 1000 1000 1000 1000 
</DataArray>
<DataArray type="Float32" Name="Velocity" NumberOfComponents="3" format="ascii">
0.0043197316 0.0059685316 0
7.7107543e-05 0.0058437083 0
-0.00023121508 0.0053465934 0
0.00019745008 0.0047225901 0
6.9610825e-05 0.0039846017 0
0.00014482575 0.0028745234 0
6.4670252e-07 0.0040283306 0
8.0555776e-07 0.004028291 0
1.6609839e-06 0.0028944106 0
2.0524262e-06 0.0028929969 0
-9.2914729e-07 0.0040282868 0
1.6978508e-07 0.0040282989 0
7.7322682e-08 0.0040282942 0
2.7219105e-10 0.0049109687 0
-1.30689e-06 0.004028297 0
-4.1376516e-08 0.0040282998 0
-8.4698279e-08 0.0040282998 0
3.8881285e-07 0.0040283045 0
1.2587816e-06 0.0040282821 0
1.3033225e-06 0.0028747136 0
2.3425729e-07 0.0040282984 0
3.3764351e-07 0.0040283022 0
1.7378672e-07 0.0028858462 0
-1.231334e-07 0.0028858541 0
-4.3973114e-07 0.0040282989 0
-1.1240049e-07 0.0040282994 0
2.9114108e-10 0.0028747958 0
1.1240051e-07 0.0040282994 0
4.3973114e-07 0.0040282989 0
1.4713321e-07 0.0028858541 0
-1.0500678e-06 0.0028856627 0
-5.722826e-07 0.0040282989 0
5.7469293e-07 0.0040282989 0
-7.0033134e-06 0.0028858201 0
-5.796408e-06 0.0028856506 0
-0.00018662518 0.0039949412 0
-8.3017825e-05 0.0039287461 0
-0.00011998555 0.0029297671 0
-0.0010165288 0.0040816115 0
-8.2660139e-05 0.0038452472 0
-0.0045806337 0.0044458979 0
0.0041669784 0.0011843715 0
0.00073427719 0.0012431972 0
0.00017010517 0.00060257304 0
0.0001022895 0.00072564499 0
0.00027972809 0.00090236706 0
5.955145e-05 0.00070834835 0
1.2281658e-05 0.001117541 0
1.2083394e-05 0.001117531 0
-1.5174796e-06 0.00090781611 0
2.7959892e-09 0.00090760115 0
3.6736594e-06 0.0011175801 0
2.7841597e-06 0.0011177259 0
6.2251538e-06 0.0011178408 0
-6.8086598e-07 0.0014057597 0
-1.5762957e-06 0.0011177004 0
1.6210128e-06 0.0011178189 0
2.1414332e-06 0.0011178408 0
3.7241662e-06 0.0011178241 0
4.5346937e-06 0.0011177355 0
-7.2797484e-09 0.00076576928 0
-1.2933075e-06 0.0011177291 0
-7.0264446e-07 0.0011176688 0
-1.2685688e-06 0.0009073072 0
1.210224e-06 0.00090730796 0
1.1516828e-06 0.0011177021 0
2.1546273e-06 0.001117693 0
9.9105728e-09 0.00076564256 0
-3.8231492e-06 0.0011177083 0
-2.4079136e-06 0.0011176877 0
-8.4606643e-07 0.00090729818 0
1.7422082e-06 0.00090729154 0
-7.9875699e-06 0.0011175621 0
-5.4543912e-06 0.0011175239 0
-1.9239105e-06 0.0009068842 0
-3.1971051e-06 0.00090640655 0
-0.00017337926 0.0011010513 0
-0.0001432478 0.0010926425 0
-0.00020407262 0.00062545756 0
-0.00043951426 0.00043137392 0
-0.00061210163 0.00062133314 0
-0.0038057403 1.2612286e-05 0
0.003538993 0.00062193733 0
0.00036311944 0.0003664378 0
0.00068544404 0.00013890683 0
0.00031406773 0.00012042301 0
0.00018506063 -7.7163451e-05 0
0.0001433845 9.9820114e-05 0
5.1917746e-06 0.0001440565 0
5.675387e-06 0.00014350205 0
2.2464592e-06 0.00018219608 0
4.0088398e-06 0.00018274065 0
3.9825482e-06 0.0001431906 0
-5.1186935e-06 0.00014261439 0
-2.5127704e-06 0.00014231887 0
-8.8242302e-07 9.7015509e-05 0
5.6379799e-09 0.00014252469 0
1.2758619e-06 0.00014261212 0
2.1886274e-06 0.00014259138 0
1.3850112e-07 0.00014260046 0
2.6243965e-06 0.00014257844 0
-3.8571221e-07 0.00015282408 0
1.2284856e-06 0.00014264284 0
-4.3156373e-07 0.00014261698 0
-1.7654675e-06 0.00018321072 0
1.6350367e-06 0.00018323858 0
1.8554408e-07 0.00014260065 0
-2.763446e-06 0.00014268527 0
-3.0141009e-06 0.00015256323 0
-3.8196335e-06 0.00014277747 0
-2.7346905e-06 0.00014296829 0
2.4675439e-06 0.00018288358 0
-1.1694397e-06 0.0001828192 0
1.3101392e-06 0.00014307816 0
-7.3595388e-06 0.00014341246 0
-3.3547062e-06 0.0001825056 0
-2.1570173e-05 0.00018174399 0
-0.0001178168 0.00011687021 0
-0.00011431306 9.6938653e-05 0
-0.00029499416 0.0001716259 0
-0.00040467456 0.00042142105 0
-0.00036412899 0.00051183987 0
-0.0039322632 0.00090024259 0
0.0040517147 0.00040822793 0
0.00085535523 0.00034489448 0
0.00048194313 0.00030537392 0
0.00010592204 0.0001290189 0
3.79794e-05 0.00021159873 0
0.00012009517 0.00012269703 0
2.5529551e-05 0.00012004741 0
-2.265627e-06 0.00011967001 0
3.212193e-06 0.00012659915 0
-1.1967006e-07 0.00012658739 0
6.7836463e-06 0.00011950045 0
5.9075973e-07 0.0001191191 0
5.5435271e-07 0.00011904381 0
-3.7976713e-07 0.00016041451 0
-3.3632972e-07 0.00011903983 0
-4.3869937e-07 0.00011906755 0
2.9530742e-07 0.00011906763 0
2.67129e-07 0.00011906672 0
5.7323427e-07 0.00011926821 0
8.5940849e-07 0.00012060312 0
-1.9290057e-06 0.00011926825 0
-2.4746107e-06 0.00011942022 0
9.821473e-07 0.00012656215 0
-5.4696574e-07 0.00012657227 0
2.9666744e-06 0.0001193764 0
1.2670567e-06 0.00011926505 0
1.140803e-09 0.00012073282 0
-1.260423e-06 0.00011926531 0
-2.9567441e-06 0.00011937758 0
5.6576772e-07 0.00012657073 0
-8.3477067e-07 0.00012672774 0
3.4534994e-06 0.00011947715 0
-8.2050437e-06 0.00011959649 0
-1.2476765e-05 0.00012680219 0
-6.440267e-06 0.00012652935 0
-0.00010184952 0.00012954329 0
-0.00013948188 0.00012559192 0
-0.00020634776 0.00022258174 0
-0.00012493946 0.00031084122 0
-0.00098786701 0.00011390239 0
-0.0040509398 0.00027941196 0
0.0041553876 0.0004998779 0
0.00098935433 0.00010864456 0
0.00025454987 0.00012747146 0
0.00014631401 7.7164383e-05 0
8.8368863e-05 7.5637799e-05 0
7.8642617e-05 2.7102302e-05 0
7.0562519e-06 7.8610923e-05 0
5.188635e-06 7.8217978e-05 0
3.095807e-06 2.2425898e-05 0
-5.8876191e-07 2.2332009e-05 0
-8.9710068e-07 7.8162695e-05 0
-7.3051535e-07 7.8144949e-05 0
2.0785389e-07 7.8069876e-05 0
-1.9358819e-07 7.5105265e-05 0
-3.6748287e-07 7.8066732e-05 0
1.9107989e-07 7.810285e-05 0
1.0247126e-07 7.8102028e-05 0
3.6726183e-07 7.8102217e-05 0
1.0677519e-06 7.8154175e-05 0
5.3670658e-07 2.1654811e-05 0
1.0619264e-07 7.8128665e-05 0
8.8845195e-07 7.8153622e-05 0
1.806734e-07 2.1792512e-05 0
-1.8066255e-07 2.1792555e-05 0
-2.2829465e-07 7.8132442e-05 0
-8.9850116e-10 7.8126119e-05 0
1.4352963e-15 2.1681943e-05 0
8.9850116e-10 7.8126119e-05 0
2.2829465e-07 7.8132442e-05 0
1.8063923e-07 2.179255e-05 0
-1.7955743e-07 2.1792514e-05 0
-3.7445648e-07 7.8129189e-05 0
3.750134e-07 7.8155645e-05 0
1.4555098e-07 2.1793627e-05 0
-1.9846353e-05 2.1383645e-05 0
-0.00015907793 3.2513854e-05 0
-6.3980995e-05 0.00015333646 0
-0.00013150575 6.1116152e-05 0
-0.00012809112 8.1442777e-05 0
-0.0010990874 0.00019876043 0
-0.003843196 0.0002286758 0
0.0029848604 0.0001681209 0
0.00075764523 0.00014288325 0
0.00030294168 6.8342386e-05 0
0.00010767969 9.5495598e-05 0
7.4188814e-05 0.00010497387 0
9.0732765e-06 1.2057835e-05 0
1.2219543e-06 7.806308e-05 0
1.755683e-06 7.8024153e-05 0
1.2164638e-06 3.4124216e-07 0
-6.3253691e-07 3.4524305e-07 0
-3.1999272e-07 7.8019526e-05 0
-1.8069096e-08 7.8019388e-05 0
9.0686098e-07 7.8018675e-05 0
8.8968541e-11 7.0009555e-05 0
-9.1204305e-07 7.8018922e-05 0
-2.7124463e-07 7.8019402e-05 0
-3.9771658e-07 7.801938e-05 0
-7.11075e-08 7.8019715e-05 0
7.4488362e-09 7.8022029e-05 0
8.9710447e-08 3.0832624e-07 0
7.3309207e-07 7.8024023e-05 0
3.9446351e-07 7.8020123e-05 0
3.6713868e-07 3.168567e-07 0
-3.6713865e-07 3.1685673e-07 0
-3.8283309e-07 7.8019693e-05 0
1.1766328e-07 7.802037e-05 0
4.6391338e-15 3.1515467e-07 0
-1.1766328e-07 7.802037e-05 0
3.8283309e-07 7.8019693e-05 0
3.6713865e-07 3.1685673e-07 0
-3.6713877e-07 3.1685693e-07 0
9.8965579e-08 7.8019693e-05 0
-9.8965586e-08 7.8019744e-05 0
1.1911473e-07 3.1685732e-07 0
-2.2263515e-05 3.0257229e-07 0
-2.0755546e-05 0.00017868256 0
-6.8236545e-06 0.00013413953 0
-0.00015925903 4.3931468e-05 0
-0.00016806365 0.00012666396 0
-0.00086844095 0.00011332278 0
-0.0029134189 6.6881614e-05 0
0.0039830483 1.1382752e-05 0
0.001242285 3.227084e-05 0
0.0002574962 7.9358877e-05 0
0.0001158891 0.00010562043 0
0.00013601648 9.3894669e-06 0
0.00010336337 -7.2091298e-06 0
4.7709127e-06 3.9450206e-06 0
1.1176883e-08 3.9417432e-06 0
-9.1566981e-15 -4.6119566e-09 0
1.1165754e-14 -4.6110071e-09 0
-4.6594875e-09 3.9417428e-06 0
4.3635966e-09 3.9417405e-06 0
-1.4539278e-07 3.9416736e-06 0
0 9.329016e-05 0
1.4539698e-07 3.9416736e-06 0
-4.2732533e-09 3.9417405e-06 0
4.7270947e-09 3.9417405e-06 0
-4.8225792e-09 3.9417409e-06 0
4.7170672e-09 3.9417459e-06 0
-3.4622338e-15 -4.6392019e-09 0
-4.8121209e-09 3.9417464e-06 0
4.6829127e-09 3.9417423e-06 0
-9.6238249e-15 -4.6327213e-09 0
9.6238266e-15 -4.6327213e-09 0
-4.6829127e-09 3.9417423e-06 0
4.7848165e-09 3.9417428e-06 0
0 -4.6339999e-09 0
-4.7848165e-09 3.9417428e-06 0
4.6829127e-09 3.9417423e-06 0