<?xml version="1.0" ?>

<VTKFile type="UnstructuredGrid" version="0.1" byte_order="BigEndian">

<UnstructuredGrid>

<Piece NumberOfPoints= " 2009 " NumberOfCells=" 2009 ">

<PointData Scalars="Pressure" Vectors="Velocity">

<DataArray type="Float32" Name="Pressure" format="ascii">

8.26143 12.8752 10.8365 11.6949 8.9052 8.36873 12.446 7.0812 7.72496 7.72496 7.0812 7.0812 7.0812 6.75932 7.0812 7.0812 7.0812 7.0812 7.0812 7.51037 7.0812 7.0812 7.72496 7.72496 7.0812 7.0812 7.61767 7.0812 7.0812 7.72496 7.72496 7.0812 7.0812 7.72496 13.6262 8.9052 8.9052 10.8365 11.8022 7.0812 9.65626 18.1328 19.4205 14.6992 10.3 6.97391 9.76356 16.6306 9.22708 9.22708 9.22708 9.22708 9.11979 9.11979 7.93955 9.11979 9.11979 9.11979 9.11979 9.22708 4.07701 9.22708 9.22708 9.33438 9.33438 9.22708 9.22708 4.07701 9.22708 9.22708 9.33438 9.33438 9.22708 9.22708 9.33438 12.3387 10.5146 7.72496 10.9438 14.1627 14.6992 5.79368 15.2357 12.9825 13.6262 9.76356 5.04264 10.1927 5.79368 1.9312 7.0812 7.40308 1.9312 1.9312 1.9312 -1.07288 1.9312 1.9312 1.9312 1.9312 1.9312 4.50618 1.9312 1.9312 7.51037 7.51037 1.9312 1.9312 4.50618 1.9312 1.9312 7.51037 7.51037 1.9312 1.9312 8.36873 11.373 6.43744 3.0041 6.86661 16.5233 12.7679 15.8795 11.9095 15.0211 13.5189 6.11556 2.03849 6.33015 14.4846 5.36451 2.57494 2.57494 5.25722 5.36451 5.25722 9.44167 5.25722 5.25722 5.25722 5.25722 5.25722 1.07289 5.25722 5.36451 2.57494 2.57494 5.25722 5.25722 1.07289 5.25722 5.25722 2.57494 2.57494 5.25722 5.25722 2.57494 11.1584 7.29579 5.25722 3.96972 7.40308 8.9052 12.9825 7.61767 9.76356 8.04684 2.14578 0.965598 7.83225 7.18849 0 7.61767 7.61767 0 0 0 0.107288 0 0 0 0 0 7.51037 0 0 7.51037 7.51037 0 0 7.51037 0 0 7.51037 7.51037 0 0 7.51037 13.8408 2.89681 1.28747 11.2657 3.86243 10.7292 11.6949 9.76356 7.51037 5.90098 0.965598 8.36873 0.107288 3.75514 1.39476 0 0 1.39476 1.39476 1.39476 0.214577 1.39476 1.39476 1.39476 1.39476 1.39476 0 1.39476 1.39476 0 0 1.39476 1.39476 0 1.39476 1.39476 0 0 1.39476 1.39476 0 0.75102 1.60933 9.97815 3.43327 9.44167 9.87085 9.97815 12.5533 9.11979 3.86243 5.90098 7.72496 2.57494 12.3387 6.54473 0 0 6.43744 6.43744 6.43744 0.107288 6.43744 6.43744 6.43744 6.43744 6.43744 0 6.43744 6.43744 0 0 6.43744 6.43744 0 6.43744 6.43744 0 0 6.43744 6.43744 2.03849 10.4073 7.18849 6.11556 9.76356 6.97391 13.9481 11.2657 7.0812 11.5876 4.2916 12.0168 0.858309 1.82391 6.33015 0 0 0 0 0 0 5.36451 0 0 0 0 0 0 0 0 0 0 0 0 0 0 0 0 0 0 0 0 7.18849 1.50204 0 5.36451 1.9312 9.22708 7.29579 7.83225 13.0898 12.9825 2.57494 7.72496 -0.107288 1.28747 0 0 0 0 0 0 1.50204 0 0 0 0 0 0 0 0 0 0 0 0 0 0 0 0 0 0 0 0 0 0 7.61767 2.57494 7.0812 9.22708 7.72496 7.72496 11.2657 10.5146 2.57494 7.61767 0.107288 6.33015 0.214577 0 0 0 0 0 0 0 0 0 0 0 0 0 0 0 0 0 0 0 0 0 0 0 0 0 0 0 0 7.61767 2.57494 7.40308 9.22708 7.72496 7.0812 9.22708 1.9312 5.36451 0 1.39476 6.43744 0 0 0 0 0 0 0 0 0 0 0 0 0 0 0 0 0 0 0 0 0 0 0 0 0 0 0 6.43744 1.39476 0 5.36451 1.9312 9.22708 7.0812 7.0812 9.11979 1.9312 5.36451 0 1.39476 6.43744 0 0 0 0 0 0 0 0 0 0 0 0 0 0 0 0 0 0 0 0 0 0 0 0 0 0 0 6.43744 1.39476 0 5.36451 1.9312 9.11979 7.0812 7.0812 9.11979 1.9312 5.25722 0 1.39476 6.43744 0 0 0 0 0 0 0 0 0 0 0 0 0 0 0 0 0 0 0 0 0 0 0 0 0 0 0 6.43744 1.39476 0 5.25722 1.9312 9.11979 7.0812 6.75932 7.93955 -1.07288 9.44167 0.107288 0.214577 0.107288 5.36451 1.50204 0 0 0 0 0 0 0 0 0 0 0 0 0 0 0 0 0 0 0 0 0 0 0 1.50204 5.36451 0.107288 0.214577 0.107288 9.44167 -1.07288 7.93955 6.75932 7.0812 9.11979 1.9312 5.25722 0 1.39476 6.43744 0 0 0 0 0 0 0 0 0 0 0 0 0 0 0 0 0 0 0 0 0 0 0 0 0 0 0 6.43744 1.39476 0 5.25722 1.9312 9.11979 7.0812 7.0812 9.11979 1.9312 5.25722 0 1.39476 6.43744 0 0 0 0 0 0 0 0 0 0 0 0 0 0 0 0 0 0 0 0 0 0 0 0 0 0 0 6.43744 1.39476 0 5.25722 1.9312 9.11979 7.0812 7.0812 9.11979 1.9312 5.25722 0 1.39476 6.43744 0 0 0 0 0 0 0 0 0 0 0 0 0 0 0 0 0 0 0 0 0 0 0 0 0 0 0 6.43744 1.39476 0 5.25722 1.9312 9.11979 7.0812 7.0812 9.11979 1.9312 5.25722 0 1.39476 6.43744 0 0 0 0 0 0 0 0 0 0 0 0 0 0 0 0 0 0 0 0 0 0 0 0 0 0 0 6.43744 1.39476 0 5.25722 1.9312 9.11979 7.0812 7.0812 9.22708 1.9312 5.25722 0 1.39476 6.43744 0 0 0 0 0 0 0 0 0 0 0 0 0 0 0 0 0 0 0 0 0 0 0 0 0 0 0 6.43744 1.39476 0 5.25722 1.9312 9.22708 7.0812 7.51037 4.07701 4.50618 1.07289 7.51037 0 0 0 0 0 0 0 0 0 0 0 0 0 0 0 0 0 0 0 0 0 0 0 0 0 0 0 0 0 0 0 7.51037 1.07289 4.50618 4.07701 7.51037 7.0812 9.22708 1.9312 5.25722 0 1.39476 6.43744 0 0 0 0 0 0 0 0 0 0 0 0 0 0 0 0 0 0 0 0 0 0 0 0 0 0 0 6.43744 1.39476 0 5.25722 1.9312 9.22708 7.0812 7.0812 9.22708 1.9312 5.36451 0 1.39476 6.43744 0 0 0 0 0 0 0 0 0 0 0 0 0 0 0 0 0 0 0 0 0 0 0 0 0 0 0 6.43744 1.39476 0 5.36451 1.9312 9.22708 7.0812 7.72496 9.33438 7.51037 2.57494 7.51037 0 0 0 0 0 0 0 0 0 0 0 0 0 0 0 0 0 0 0 0 0 0 0 0 0 0 0 0 0 0 0 7.51037 2.57494 7.51037 9.33438 7.72496 7.72496 9.33438 7.51037 2.57494 7.51037 0 0 0 0 0 0 0 0 0 0 0 0 0 0 0 0 0 0 0 0 0 0 0 0 0 0 0 0 0 0 0 7.51037 2.57494 7.51037 9.33438 7.72496 7.0812 9.22708 1.9312 5.25722 0 1.39476 6.43744 0 0 0 0 0 0 0 0 0 0 0 0 0 0 0 0 0 0 0 0 0 0 0 0 0 0 0 6.43744 1.39476 0 5.25722 1.9312 9.22708 7.0812 7.0812 9.22708 1.9312 5.25722 0 1.39476 6.43744 0 0 0 0 0 0 0 0 0 0 0 0 0 0 0 0 0 0 0 0 0 0 0 0 0 0 0 6.43744 1.39476 0 5.25722 1.9312 9.22708 7.0812 7.61767 4.07701 4.50618 1.07289 7.51037 0 0 0 0 0 0 0 0 0 0 0 0 0 0 0 0 0 0 0 0 0 0 0 0 0 0 0 0 0 0 0 7.51037 1.07289 4.50618 4.07701 7.61767 7.0812 9.22708 1.9312 5.25722 0 1.39476 6.43744 0 0 0 0 0 0 0 0 0 0 0 0 0 0 0 0 0 0 0 0 0 0 0 0 0 0 0 6.43744 1.39476 0 5.25722 1.9312 9.22708 7.0812 7.0812 9.22708 1.9312 5.25722 0 1.39476 6.43744 0 0 0 0 0 0 0 0 0 0 0 0 0 0 0 0 0 0 0 0 0 0 0 0 0 0 0 6.43744 1.39476 0 5.25722 1.9312 9.22708 7.0812 7.72496 9.33438 7.51037 2.57494 7.51037 0 0 0 0 0 0 0 0 0 0 0 0 0 0 0 0 0 0 0 0 0 0 0 0 0 0 0 0 0 0 0 7.51037 2.57494 7.51037 9.33438 7.72496 7.72496 9.33438 7.51037 2.57494 7.51037 0 0 0 0 0 0 0 0 0 0 0 0 0 0 0 0 0 0 0 0 0 0 0 0 0 0 0 0 0 0 0 7.51037 2.57494 7.51037 9.33438 7.72496 7.0812 9.22708 1.9312 5.25722 0 1.39476 6.43744 0 0 0 0 0 0 0 0 0 0 0 0 0 0 0 0 0 0 0 0 0 0 0 0 0 0 0 6.43744 1.39476 0 5.25722 1.9312 9.22708 7.0812 7.0812 9.22708 1.9312 5.25722 0 1.39476 6.43744 0 0 0 0 0 0 1.50204 0 0 0 0 0 0 0 0 0 0 0 0 0 0 0 0 0 0 0 0 6.43744 1.39476 0 5.25722 1.9312 9.22708 7.0812 7.72496 9.33438 8.36873 2.57494 7.51037 0 2.03849 0 0 0 0 0 0 5.36451 0 0 0 0 0 0 0 0 0 0 0 0 0 0 0 0 0 0 0 0 1.50204 0 7.51037 2.57494 8.26143 9.33438 7.72496 13.6262 12.3387 11.373 11.1584 13.8408 0.75102 10.4073 7.18849 0 0 6.43744 6.43744 6.43744 0.107288 6.43744 6.43744 6.43744 6.43744 6.43744 0 6.43744 6.43744 0 0 6.43744 6.43744 0 6.43744 6.43744 0 0 6.43744 6.43744 1.50204 5.68639 5.90098 12.7679 8.58331 10.4073 12.1241 14.0554 8.9052 10.5146 6.43744 7.29579 2.89681 1.60933 7.18849 1.50204 0 0 1.39476 1.39476 1.39476 0.214577 1.39476 1.39476 1.39476 1.39476 1.39476 0 1.39476 1.39476 0 0 1.39476 1.39476 0 1.39476 1.39476 0 0 1.39476 1.39476 0 5.90098 3.0041 3.11139 5.5791 6.65203 8.15414 7.0812 8.9052 7.72496 3.0041 5.25722 1.28747 9.97815 6.11556 0 7.61767 7.61767 0 0 0 0.107288 0 0 0 0 0 7.51037 0 0 7.51037 7.51037 0 0 7.51037 0 0 7.51037 7.51037 0 0 7.51037 12.7679 3.11139 1.39476 10.5146 5.25722 11.5876 11.9095 10.8365 10.9438 6.86661 3.96972 11.2657 3.43327 9.76356 5.36451 2.57494 2.57494 5.36451 5.36451 5.25722 9.44167 5.25722 5.25722 5.25722 5.25722 5.25722 1.07289 5.25722 5.36451 2.57494 2.57494 5.25722 5.25722 1.07289 5.25722 5.25722 2.57494 2.57494 5.25722 5.25722 2.57494 8.58331 5.5791 10.5146 2.57494 7.40308 11.9095 10.8365 11.8022 14.1627 16.5233 7.40308 3.86243 9.44167 6.97391 1.9312 7.0812 7.40308 1.9312 1.9312 1.9312 -1.07288 1.9312 1.9312 1.9312 1.9312 1.9312 4.50618 1.9312 1.9312 7.51037 7.51037 1.9312 1.9312 4.50618 1.9312 1.9312 7.51037 7.51037 1.9312 1.9312 8.26143 10.4073 6.65203 5.25722 7.40308 16.416 14.4846 9.87085 7.0812 14.6992 12.7679 8.9052 10.7292 9.87085 13.9481 9.22708 9.22708 9.22708 9.22708 9.11979 9.11979 7.93955 9.11979 9.11979 9.11979 9.11979 9.22708 4.07701 9.22708 9.22708 9.33438 9.33438 9.22708 9.22708 4.07701 9.22708 9.22708 9.33438 9.33438 9.22708 9.22708 9.33438 12.1241 8.15414 11.5876 11.9095 14.4846 15.2357 6.65203 9.65626 5.79368 15.8795 12.9825 11.6949 9.97815 11.2657 7.29579 7.72496 7.72496 7.0812 7.0812 7.0812 6.75932 7.0812 7.0812 7.0812 7.0812 7.0812 7.51037 7.0812 7.0812 7.72496 7.72496 7.0812 7.0812 7.61767 7.0812 7.0812 7.72496 7.72496 7.0812 7.0812 7.72496 14.0554 7.0812 11.9095 10.8365 9.87085 6.65203 7.29579 0.1 0.1 0.1 0.1 0.1 0.1 0.1 0.1 0.1 0.1 0.1 0.1 0.1 0.1 0.1 0.1 0.1 0.1 0.1 0.1 0.1 0.1 0.1 0.1 0.1 0.1 0.1 0.1 0.1 0.1 0.1 0.1 0.1 0.1 0.1 0.1 0.1 0.1 0.1 0.1 0.1 0.1 0.1 0.1 0.1 0.1 0.1 0.1 0.1 0.1 0.1 0.1 0.1 0.1 0.1 0.1 0.1 0.1 0.1 0.1 0.1 0.1 0.1 0.1 0.1 0.1 0.1 0.1 0.1 0.1 0.1 0.1 0.1 0.1 0.1 0.1 0.1 0.1 0.1 0.1 0.1 0.1 0.1 0.1 0.1 0.1 0.1 0.1 0.1 0.1 0.1 0.1 0.1 0.1 0.1 0.1 0.1 0.1 0.1 0.1 0.1 0.1 0.1 0.1 0.1 0.1 0.1 0.1 0.1 0.1 0.1 0.1 0.1 0.1 0.1 0.1 0.1 0.1 0.1 0.1 0.1 0.1 0.1 0.1 0.1 0.1 0.1 0.1 0.1 0.1 0.1 0.1 0.1 0.1 0.1 0.1 0.1 0.1 0.1 0.1 0.1 0.1 0.1 0.1 0.1 0.1 0.1 0.1 0.1 0.1 0.1 0.1 0.1 0.1 0.1 0.1 0.1 0.1 0.1 0.1 0.1 0.1 0.1 0.1 0.1 0.1 0.1 0.1 0.1 0.1 0.1 0.1 0.1 0.1 0.1 0.1 0.1 0.1 0.1 0.1 0.1 0.1 0.1 0.1 0.1 0.1 0.1 0.1 0.1 0.1 0.1 0.1 0.1 0.1 0.1 0.1 0.1 0.1 0.1 0.1 0.1 0.1 0.1 0.1 0.1 0.1 0.1 0.1 0.1 0.1 0.1 0.1 0.1 0.1 0.1 0.1 0.1 0.1 0.1 0.1 0.1 0.1 0.1 0.1 0.1 0.1 0.1 0.1 0.1 0.1 0.1 0.1 0.1 0.1 0.1 0.1 0.1 0.1 0.1 0.1 0.1 0.1 0.1 0.1 0.1 0.1 0.1 0.1 0.1 0.1 0.1 0.1 0.1 0.1 0.1 0.1 0.1 0.1 0.1 0.1 0.1 0.1 0.1 0.1 0.1 0.1 0.1 0.1 0.1 0.1 0.1 0.1 0.1 0.1 0.1 0.1 0.1 0.1 0.1 0.1 0.1 0.1 0.1 0.1 0.1 0.1 0.1 0.1 0.1 0.1 0.1 0.1 0.1 0.1 0.1 0.1 0.1 0.1 0.1 0.1 0.1 0.1 0.1 0.1 0.1 0.1 0.1 0.1 0.1 0.1 0.1 0.1 0.1 0.1 0.1 0.1 0.1 0.1 0.1 0.1 0.1 0.1 0.1 0.1 0.1 0.1 0.1 0.1 
</DataArray>

<DataArray type="Float32" Name="Density" format="ascii">
1000.01 1000.01 1000.01 1000.01 1000.01 1000.01 1000.01 1000.01 1000.01 1000.01 1000.01 1000.01 1000.01 1000.01 1000.01 1000.01 1000.01 1000.01 1000.01 1000.01 1000.01 1000.01 1000.01 1000.01 1000.01 1000.01 1000.01 1000.01 1000.01 1000.01 1000.01 1000.01 1000.01 1000.01 1000.02 1000.01 1000.01 1000.01 1000.01 1000.01 1000.01 1000.02 1000.02 1000.02 1000.01 1000.01 1000.01 1000.02 1000.01 1000.01 1000.01 1000.01 1000.01 1000.01 1000.01 1000.01 1000.01 1000.01 1000.01 1000.01 1000 1000.01 1000.01 1000.01 1000.01 1000.01 1000.01 1000 1000.01 1000.01 1000.01 1000.01 1000.01 1000.01 1000.01 1000.01 1000.01 1000.01 1000.01 1000.02 1000.02 1000.01 1000.02 1000.01 1000.02 1000.01 1000.01 1000.01 1000.01 1000 1000.01 1000.01 1000 1000 1000 999.999 1000 1000 1000 1000 1000 1000.01 1000 1000 1000.01 1000.01 1000 1000 1000.01 1000 1000 1000.01 1000.01 1000 1000 1000.01 1000.01 1000.01 1000 1000.01 1000.02 1000.01 1000.02 1000.01 1000.02 1000.02 1000.01 1000 1000.01 1000.02 1000.01 1000 1000 1000.01 1000.01 1000.01 1000.01 1000.01 1000.01 1000.01 1000.01 1000.01 1000 1000.01 1000.01 1000 1000 1000.01 1000.01 1000 1000.01 1000.01 1000 1000 1000.01 1000.01 1000 1000.01 1000.01 1000.01 1000 1000.01 1000.01 1000.01 1000.01 1000.01 1000.01 1000 1000 1000.01 1000.01 1000 1000.01 1000.01 1000 1000 1000 1000 1000 1000 1000 1000 1000 1000.01 1000 1000 1000.01 1000.01 1000 1000 1000.01 1000 1000 1000.01 1000.01 1000 1000 1000.01 1000.02 1000 1000 1000.01 1000 1000.01 1000.01 1000.01 1000.01 1000.01 1000 1000.01 1000 1000 1000 1000 1000 1000 1000 1000 1000 1000 1000 1000 1000 1000 1000 1000 1000 1000 1000 1000 1000 1000 1000 1000 1000 1000 1000 1000 1000 1000 1000 1000.01 1000 1000.01 1000.01 1000.01 1000.01 1000.01 1000 1000.01 1000.01 1000 1000.01 1000.01 1000 1000 1000.01 1000.01 1000.01 1000 1000.01 1000.01 1000.01 1000.01 1000.01 1000 1000.01 1000.01 1000 1000 1000.01 1000.01 1000 1000.01 1000.01 1000 1000 1000.01 1000.01 1000 1000.01 1000.01 1000.01 1000.01 1000.01 1000.02 1000.01 1000.01 1000.01 1000 1000.01 1000 1000 1000.01 1000 1000 1000 1000 1000 1000 1000.01 1000 1000 1000 1000 1000 1000 1000 1000 1000 1000 1000 1000 1000 1000 1000 1000 1000 1000 1000 1000 1000.01 1000 1000 1000.01 1000 1000.01 1000.01 1000.01 1000.01 1000.01 1000 1000.01 1000 1000 1000 1000 1000 1000 1000 1000 1000 1000 1000 1000 1000 1000 1000 1000 1000 1000 1000 1000 1000 1000 1000 1000 1000 1000 1000 1000 1000 1000 1000 1000.01 1000 1000.01 1000.01 1000.01 1000.01 1000.01 1000.01 1000 1000.01 1000 1000.01 1000 1000 1000 1000 1000 1000 1000 1000 1000 1000 1000 1000 1000 1000 1000 1000 1000 1000 1000 1000 1000 1000 1000 1000 1000 1000 1000 1000 1000 1000.01 1000 1000.01 1000.01 1000.01 1000.01 1000.01 1000 1000.01 1000 1000 1000.01 1000 1000 1000 1000 1000 1000 1000 1000 1000 1000 1000 1000 1000 1000 1000 1000 1000 1000 1000 1000 1000 1000 1000 1000 1000 1000 1000 1000.01 1000 1000 1000.01 1000 1000.01 1000.01 1000.01 1000.01 1000 1000.01 1000 1000 1000.01 1000 1000 1000 1000 1000 1000 1000 1000 1000 1000 1000 1000 1000 1000 1000 1000 1000 1000 1000 1000 1000 1000 1000 1000 1000 1000 1000 1000.01 1000 1000 1000.01 1000 1000.01 1000.01 1000.01 1000.01 1000 1000.01 1000 1000 1000.01 1000 1000 1000 1000 1000 1000 1000 1000 1000 1000 1000 1000 1000 1000 1000 1000 1000 1000 1000 1000 1000 1000 1000 1000 1000 1000 1000 1000.01 1000 1000 1000.01 1000 1000.01 1000.01 1000.01 1000.01 999.999 1000.01 1000 1000 1000 1000.01 1000 1000 1000 1000 1000 1000 1000 1000 1000 1000 1000 1000 1000 1000 1000 1000 1000 1000 1000 1000 1000 1000 1000 1000 1000 1000.01 1000 1000 1000 1000.01 999.999 1000.01 1000.01 1000.01 1000.01 1000 1000.01 1000 1000 1000.01 1000 1000 1000 1000 1000 1000 1000 1000 1000 1000 1000 1000 1000 1000 1000 1000 1000 1000 1000 1000 1000 1000 1000 1000 1000 1000 1000 1000.01 1000 1000 1000.01 1000 1000.01 1000.01 1000.01 1000.01 1000 1000.01 1000 1000 1000.01 1000 1000 1000 1000 1000 1000 1000 1000 1000 1000 1000 1000 1000 1000 1000 1000 1000 1000 1000 1000 1000 1000 1000 1000 1000 1000 1000 1000.01 1000 1000 1000.01 1000 1000.01 1000.01 1000.01 1000.01 1000 1000.01 1000 1000 1000.01 1000 1000 1000 1000 1000 1000 1000 1000 1000 1000 1000 1000 1000 1000 1000 1000 1000 1000 1000 1000 1000 1000 1000 1000 1000 1000 1000 1000.01 1000 1000 1000.01 1000 1000.01 1000.01 1000.01 1000.01 1000 1000.01 1000 1000 1000.01 1000 1000 1000 1000 1000 1000 1000 1000 1000 1000 1000 1000 1000 1000 1000 1000 1000 1000 1000 1000 1000 1000 1000 1000 1000 1000 1000 1000.01 1000 1000 1000.01 1000 1000.01 1000.01 1000.01 1000.01 1000 1000.01 1000 1000 1000.01 1000 1000 1000 1000 1000 1000 1000 1000 1000 1000 1000 1000 1000 1000 1000 1000 1000 1000 1000 1000 1000 1000 1000 1000 1000 1000 1000 1000.01 1000 1000 1000.01 1000 1000.01 1000.01 1000.01 1000 1000.01 1000 1000.01 1000 1000 1000 1000 1000 1000 1000 1000 1000 1000 1000 1000 1000 1000 1000 1000 1000 1000 1000 1000 1000 1000 1000 1000 1000 1000 1000 1000 1000 1000 1000 1000.01 1000 1000.01 1000 1000.01 1000.01 1000.01 1000 1000.01 1000 1000 1000.01 1000 1000 1000 1000 1000 1000 1000 1000 1000 1000 1000 1000 1000 1000 1000 1000 1000 1000 1000 1000 1000 1000 1000 1000 1000 1000 1000 1000.01 1000 1000 1000.01 1000 1000.01 1000.01 1000.01 1000.01 1000 1000.01 1000 1000 1000.01 1000 1000 1000 1000 1000 1000 1000 1000 1000 1000 1000 1000 1000 1000 1000 1000 1000 1000 1000 1000 1000 1000 1000 1000 1000 1000 1000 1000.01 1000 1000 1000.01 1000 1000.01 1000.01 1000.01 1000.01 1000.01 1000 1000.01 1000 1000 1000 1000 1000 1000 1000 1000 1000 1000 1000 1000 1000 1000 1000 1000 1000 1000 1000 1000 1000 1000 1000 1000 1000 1000 1000 1000 1000 1000 1000 1000.01 1000 1000.01 1000.01 1000.01 1000.01 1000.01 1000.01 1000 1000.01 1000 1000 1000 1000 1000 1000 1000 1000 1000 1000 1000 1000 1000 1000 1000 1000 1000 1000 1000 1000 1000 1000 1000 1000 1000 1000 1000 1000 1000 1000 1000 1000.01 1000 1000.01 1000.01 1000.01 1000.01 1000.01 1000 1000.01 1000 1000 1000.01 1000 1000 1000 1000 1000 1000 1000 1000 1000 1000 1000 1000 1000 1000 1000 1000 1000 1000 1000 1000 1000 1000 1000 1000 1000 1000 1000 1000.01 1000 1000 1000.01 1000 1000.01 1000.01 1000.01 1000.01 1000 1000.01 1000 1000 1000.01 1000 1000 1000 1000 1000 1000 1000 1000 1000 1000 1000 1000 1000 1000 1000 1000 1000 1000 1000 1000 1000 1000 1000 1000 1000 1000 1000 1000.01 1000 1000 1000.01 1000 1000.01 1000.01 1000.01 1000 1000.01 1000 1000.01 1000 1000 1000 1000 1000 1000 1000 1000 1000 1000 1000 1000 1000 1000 1000 1000 1000 1000 1000 1000 1000 1000 1000 1000 1000 1000 1000 1000 1000 1000 1000 1000.01 1000 1000.01 1000 1000.01 1000.01 1000.01 1000 1000.01 1000 1000 1000.01 1000 1000 1000 1000 1000 1000 1000 1000 1000 1000 1000 1000 1000 1000 1000 1000 1000 1000 1000 1000 1000 1000 1000 1000 1000 1000 1000 1000.01 1000 1000 1000.01 1000 1000.01 1000.01 1000.01 1000.01 1000 1000.01 1000 1000 1000.01 1000 1000 1000 1000 1000 1000 1000 1000 1000 1000 1000 1000 1000 1000 1000 1000 1000 1000 1000 1000 1000 1000 1000 1000 1000 1000 1000 1000.01 1000 1000 1000.01 1000 1000.01 1000.01 1000.01 1000.01 1000.01 1000 1000.01 1000 1000 1000 1000 1000 1000 1000 1000 1000 1000 1000 1000 1000 1000 1000 1000 1000 1000 1000 1000 1000 1000 1000 1000 1000 1000 1000 1000 1000 1000 1000 1000.01 1000 1000.01 1000.01 1000.01 1000.01 1000.01 1000.01 1000 1000.01 1000 1000 1000 1000 1000 1000 1000 1000 1000 1000 1000 1000 1000 1000 1000 1000 1000 1000 1000 1000 1000 1000 1000 1000 1000 1000 1000 1000 1000 1000 1000 1000.01 1000 1000.01 1000.01 1000.01 1000.01 1000.01 1000 1000.01 1000 1000 1000.01 1000 1000 1000 1000 1000 1000 1000 1000 1000 1000 1000 1000 1000 1000 1000 1000 1000 1000 1000 1000 1000 1000 1000 1000 1000 1000 1000 1000.01 1000 1000 1000.01 1000 1000.01 1000.01 1000.01 1000.01 1000 1000.01 1000 1000 1000.01 1000 1000 1000 1000 1000 1000 1000 1000 1000 1000 1000 1000 1000 1000 1000 1000 1000 1000 1000 1000 1000 1000 1000 1000 1000 1000 1000 1000.01 1000 1000 1000.01 1000 1000.01 1000.01 1000.01 1000.01 1000.01 1000 1000.01 1000 1000 1000 1000 1000 1000 1000 1000 1000.01 1000 1000 1000 1000 1000 1000 1000 1000 1000 1000 1000 1000 1000 1000 1000 1000 1000 1000 1000 1000 1000 1000 1000.01 1000 1000.01 1000.01 1000.01 1000.02 1000.01 1000.01 1000.01 1000.02 1000 1000.01 1000.01 1000 1000 1000.01 1000.01 1000.01 1000 1000.01 1000.01 1000.01 1000.01 1000.01 1000 1000.01 1000.01 1000 1000 1000.01 1000.01 1000 1000.01 1000.01 1000 1000 1000.01 1000.01 1000 1000.01 1000.01 1000.01 1000.01 1000.01 1000.01 1000.02 1000.01 1000.01 1000.01 1000.01 1000 1000 1000.01 1000 1000 1000 1000 1000 1000 1000 1000 1000 1000 1000 1000 1000 1000 1000 1000 1000 1000 1000 1000 1000 1000 1000 1000 1000 1000 1000 1000.01 1000 1000 1000.01 1000.01 1000.01 1000.01 1000.01 1000.01 1000 1000.01 1000 1000.01 1000.01 1000 1000.01 1000.01 1000 1000 1000 1000 1000 1000 1000 1000 1000 1000.01 1000 1000 1000.01 1000.01 1000 1000 1000.01 1000 1000 1000.01 1000.01 1000 1000 1000.01 1000.01 1000 1000 1000.01 1000.01 1000.01 1000.01 1000.01 1000.01 1000.01 1000 1000.01 1000 1000.01 1000.01 1000 1000 1000.01 1000.01 1000.01 1000.01 1000.01 1000.01 1000.01 1000.01 1000.01 1000 1000.01 1000.01 1000 1000 1000.01 1000.01 1000 1000.01 1000.01 1000 1000 1000.01 1000.01 1000 1000.01 1000.01 1000.01 1000 1000.01 1000.01 1000.01 1000.01 1000.02 1000.02 1000.01 1000 1000.01 1000.01 1000 1000.01 1000.01 1000 1000 1000 999.999 1000 1000 1000 1000 1000 1000.01 1000 1000 1000.01 1000.01 1000 1000 1000.01 1000 1000 1000.01 1000.01 1000 1000 1000.01 1000.01 1000.01 1000.01 1000.01 1000.02 1000.02 1000.01 1000.01 1000.02 1000.01 1000.01 1000.01 1000.01 1000.02 1000.01 1000.01 1000.01 1000.01 1000.01 1000.01 1000.01 1000.01 1000.01 1000.01 1000.01 1000.01 1000 1000.01 1000.01 1000.01 1000.01 1000.01 1000.01 1000 1000.01 1000.01 1000.01 1000.01 1000.01 1000.01 1000.01 1000.01 1000.01 1000.01 1000.01 1000.02 1000.02 1000.01 1000.01 1000.01 1000.02 1000.01 1000.01 1000.01 1000.01 1000.01 1000.01 1000.01 1000.01 1000.01 1000.01 1000.01 1000.01 1000.01 1000.01 1000.01 1000.01 1000.01 1000.01 1000.01 1000.01 1000.01 1000.01 1000.01 1000.01 1000.01 1000.01 1000.01 1000.01 1000.01 1000.01 1000.01 1000.02 1000.01 1000.01 1000.01 1000.01 1000.01 1000.01 1000 1000 1000 1000 1000 1000 1000 1000 1000 1000 1000 1000 1000 1000 1000 1000 1000 1000 1000 1000 1000 1000 1000 1000 1000 1000 1000 1000 1000 1000 1000 1000 1000 1000 1000 1000 1000 1000 1000 1000 1000 1000 1000 1000 1000 1000 1000 1000 1000 1000 1000 1000 1000 1000 1000 1000 1000 1000 1000 1000 1000 1000 1000 1000 1000 1000 1000 1000 1000 1000 1000 1000 1000 1000 1000 1000 1000 1000 1000 1000 1000 1000 1000 1000 1000 1000 1000 1000 1000 1000 1000 1000 1000 1000 1000 1000 1000 1000 1000 1000 1000 1000 1000 1000 1000 1000 1000 1000 1000 1000 1000 1000 1000 1000 1000 1000 1000 1000 1000 1000 1000 1000 1000 1000 1000 1000 1000 1000 1000 1000 1000 1000 1000 1000 1000 1000 1000 1000 1000 1000 1000 1000 1000 1000 1000 1000 1000 1000 1000 1000 1000 1000 1000 1000 1000 1000 1000 1000 1000 1000 1000 1000 1000 1000 1000 1000 1000 1000 1000 1000 1000 1000 1000 1000 1000 1000 1000 1000 1000 1000 1000 1000 1000 1000 1000 1000 1000 1000 1000 1000 1000 1000 1000 1000 1000 1000 1000 1000 1000 1000 1000 1000 1000 1000 1000 1000 1000 1000 1000 1000 1000 1000 1000 1000 1000 1000 1000 1000 1000 1000 1000 1000 1000 1000 1000 1000 1000 1000 1000 1000 1000 1000 1000 1000 1000 1000 1000 1000 1000 1000 1000 1000 1000 1000 1000 1000 1000 1000 1000 1000 1000 1000 1000 1000 1000 1000 1000 1000 1000 1000 1000 1000 1000 1000 1000 1000 1000 1000 1000 1000 1000 1000 1000 1000 1000 1000 1000 1000 1000 1000 1000 1000 1000 1000 1000 1000 1000 1000 1000 1000 1000 1000 1000 1000 1000 1000 1000 1000 1000 1000 1000 1000 1000 1000 1000 1000 1000 1000 1000 1000 1000 1000 1000 1000 1000 1000 1000 1000 1000 1000 1000 1000 1000 1000 1000 1000 1000 1000 
</DataArray>
<DataArray type="Float32" Name="Velocity" NumberOfComponents="3" format="ascii">
0.0043031862 0.0059212246 0
-9.329219e-05 0.0058482606 0
-0.00037413937 0.0052335858 0
0.00028606667 0.0046386649 0
0.00011666941 0.0039519644 0
0.00011879984 0.0028666896 0
3.1293726e-05 0.0039281384 0
8.7979734e-06 0.0039678668 0
1.4844979e-06 0.0028372949 0
2.6918462e-06 0.0028361112 0
-8.0558669e-07 0.0039678821 0
-3.4710149e-07 0.0039678947 0
3.8002625e-07 0.0039678891 0
2.7219105e-10 0.0048432928 0
-8.815901e-07 0.0039678961 0
-1.2751249e-07 0.0039678956 0
-8.0990482e-08 0.0039678952 0
-2.3878496e-07 0.0039678989 0
1.1999706e-06 0.0039678877 0
1.3630503e-06 0.0028178697 0
4.0244214e-07 0.0039678947 0
4.1637801e-08 0.003967898 0
1.0196933e-07 0.002830161 0
-7.3245261e-08 0.0028301694 0
-2.0971976e-07 0.0039678961 0
-3.786125e-07 0.0039678938 0
2.9114108e-10 0.0028179348 0
3.786125e-07 0.0039678938 0
2.097197e-07 0.0039678961 0
9.8179733e-08 0.0028301694 0
-1.2049406e-06 0.0028299897 0
-4.0334211e-07 0.0039678961 0
4.1981986e-07 0.0039678966 0
-1.8415623e-05 0.0028299419 0
-6.7845678e-05 0.0028251174 0
-0.00017781736 0.0038952744 0
-0.00011827601 0.0039044288 0
-0.00018797016 0.0028653832 0
-0.0010631224 0.0040280917 0
5.1871906e-05 0.0038293523 0
-0.004639911 0.0043703346 0
0.0041595856 0.0011810076 0
0.00065680855 0.0012793129 0
0.00010284243 0.00043924604 0
0.00015735456 0.00074187311 0
0.0002040188 0.00093576714 0
9.7301177e-05 0.0005196007 0
9.1527181e-05 0.0010601513 0
2.7231254e-05 0.0011138204 0
7.5688672e-06 0.00087866286 0
8.6737946e-06 0.000878944 0
2.8823999e-06 0.0011138149 0
3.895444e-06 0.0011137861 0
6.5516051e-06 0.0011141105 0
-7.6421992e-07 0.0013500605 0
-2.9071803e-06 0.0011139758 0
1.2212333e-06 0.0011140924 0
3.9172046e-06 0.0011141137 0
3.778616e-06 0.0011140974 0
4.6352366e-06 0.001113957 0
-7.8912272e-08 0.00072185165 0
-1.3356454e-06 0.0011139516 0
-6.9497554e-07 0.0011137873 0
2.2738495e-06 0.00087839377 0
-2.7214442e-06 0.00087841286 0
1.1934958e-06 0.0011139269 0
2.2672316e-06 0.001113916 0
2.514841e-07 0.00072171842 0
-3.9070046e-06 0.0011139313 0
-2.4249825e-06 0.0011139149 0
-3.4284892e-06 0.00087844202 0
-4.3399923e-06 0.00087855395 0
-8.3539771e-06 0.0011139311 0
-5.4258303e-06 0.0011138995 0
-2.5669617e-05 0.00087847229 0
-6.1624683e-05 0.0008632557 0
-0.000194215 0.0010348494 0
-9.8063007e-05 0.0011032055 0
-0.0002403106 0.00055202504 0
-0.00047116526 0.00029488181 0
-0.00052116741 0.00053324894 0
-0.0037765438 -0.00011575073 0
0.0034250561 0.00061617233 0
0.00016256966 0.0002689659 0
0.00074228301 4.1174135e-06 0
0.00037527244 4.1788007e-05 0
0.00013489281 -0.0001448457 0
0.00021189671 1.6097689e-05 0
5.8747853e-05 6.1385334e-05 0
-1.5291967e-05 0.00010170022 0
4.6247428e-06 0.00017032264 0
-1.1168702e-06 0.00017035112 0
9.502075e-06 0.00010148434 0
1.0090416e-06 0.00010080806 0
1.328517e-06 0.00010068775 0
-8.7102944e-07 6.8880974e-05 0
-1.5168276e-07 0.00010088975 0
-2.3018757e-07 0.00010097691 0
8.7807187e-08 0.00010095654 0
8.1100291e-07 0.00010096536 0
4.7947754e-07 0.000100752 0
2.4211988e-07 0.00018439868 0
1.1799289e-06 0.00010078213 0
-7.2469129e-06 0.00010073469 0
-4.6493956e-06 0.00017117265 0
5.1970769e-06 0.000171222 0
4.5003317e-06 0.00010076296 0
-3.4886687e-06 0.00010092102 0
-3.199978e-06 0.00018399228 0
-1.1056964e-06 0.00010100778 0
-1.6046415e-06 0.00010103797 0
-2.9266332e-06 0.00017087063 0
6.7593277e-07 0.00017068401 0
6.9330949e-06 0.00010100962 0
-1.1209035e-05 0.00010143716 0
-1.5950098e-05 0.0001698017 0
-5.3064774e-05 0.00015194328 0
-9.3846706e-05 5.1609954e-06 0
-0.00011331301 5.2173251e-05 0
-0.00035164267 0.00019022831 0
-0.00044415792 0.00047398108 0
-0.00020141463 0.00054876757 0
-0.0038845069 0.00094813918 0
0.0040747444 0.00049901853 0
0.00078508194 0.00049463299 0
0.00055925793 0.00038464766 0
0.0001903628 0.00016982947 0
6.6123216e-06 0.00025147537 0
7.257313e-05 0.00014532494 0
0.00014908456 0.00017396461 0
1.1445104e-05 0.00015986477 0
5.7366134e-07 0.00013069177 0
3.8715889e-06 0.00013102882 0
-3.4521909e-06 0.00015947323 0
4.7185376e-06 0.00015899532 0
3.9759825e-06 0.00015862536 0
2.3748587e-06 0.00023192551 0
-4.7778428e-07 0.00015869705 0
-3.4251215e-07 0.00015872698 0
2.6602717e-07 0.00015872749 0
2.3436949e-07 0.00015872627 0
5.2276692e-07 0.00015924052 0
-4.49552e-06 0.00010015612 0
-7.5341853e-07 0.00015939685 0
1.7194768e-06 0.00015949755 0
1.016458e-06 0.00013110669 0
-5.7047157e-07 0.00013111705 0
-1.0218412e-06 0.00015934504 0
8.2785061e-07 0.00015937528 0
9.1084793e-09 0.00010013095 0
-7.7037419e-07 0.0001593761 0
1.0653341e-06 0.00015934714 0
6.1338295e-07 0.00013115635 0
-7.8430418e-07 0.00013124208 0
-6.7042079e-06 0.00015952485 0
-9.0816848e-06 0.00015994396 0
-1.7834356e-05 0.00013131218 0
-0.00011628914 0.00011924054 0
-5.8005717e-05 0.00021862783 0
-0.0001185725 0.00017632676 0
-0.00022727318 0.00018995203 0
-6.8086032e-05 0.00035097217 0
-0.0010010424 0.00012045831 0
-0.0040273261 0.00034219134 0
0.0041488814 0.0005737078 0
0.0010196759 0.00016048724 0
0.00018642632 0.00016219798 0
0.00018283215 8.2755214e-05 0
7.5830016e-05 6.3488311e-05 0
3.6051777e-05 0.00014891746 0
7.3342017e-05 7.6458615e-05 0
3.6060994e-06 7.4731215e-05 0
-2.6806047e-06 0.00010939709 0
9.5068881e-06 0.00010906312 0
6.1483354e-07 7.4442396e-05 0
-7.3445506e-07 7.4455573e-05 0
1.3021042e-07 7.421503e-05 0
-1.1811746e-07 8.6980341e-05 0
-3.6650295e-07 7.4212898e-05 0
1.4217032e-07 7.4248885e-05 0
1.5360798e-07 7.4248062e-05 0
3.6687879e-07 7.4248259e-05 0
1.0667871e-06 7.4383803e-05 0
4.7717316e-07 0.00010467279 0
1.0837477e-07 7.4358926e-05 0
-2.2817733e-06 7.4569907e-05 0
-1.0494242e-06 0.00010733254 0
4.2410093e-06 0.00010743573 0
-2.3010932e-07 7.4362979e-05 0
-4.0035606e-09 7.435611e-05 0
1.4352963e-15 0.0001047464 0
3.9836041e-09 7.435611e-05 0
2.3010935e-07 7.4362986e-05 0
-4.2418419e-06 0.00010743577 0
3.2229914e-06 0.0001073879 0
8.0698874e-07 7.4398682e-05 0
-1.8625306e-06 7.4461117e-05 0
-1.3325551e-05 0.00010749232 0
-8.2284801e-05 0.00012558102 0
-0.00013462127 4.4720895e-05 0
-7.389456e-05 0.00012719372 0
-0.00017055341 0.00013835536 0
-6.687014e-05 5.8745729e-05 0
-0.001092187 0.00021651025 0
-0.0037544365 0.00030093652 0
0.0028810841 0.0001556506 0
0.00070154789 0.00014918331 0
0.0003251037 7.7174671e-05 0
8.0384627e-05 6.766033e-05 0
0.0001546663 6.704597e-05 0
1.5754224e-05 2.9096474e-05 0
1.274945e-05 9.2181421e-05 0
8.6554855e-06 7.6478631e-05 0
3.7800689e-06 6.7197025e-06 0
-1.3555317e-06 6.6869297e-06 0
-7.9106815e-07 7.6452321e-05 0
-5.034284e-07 7.6454555e-05 0
-4.8652834e-07 7.6410506e-05 0
-2.847511e-08 6.6531233e-05 0
1.2006274e-07 7.641421e-05 0
-2.804278e-07 7.6454409e-05 0
3.5686594e-07 7.6454533e-05 0
3.7188178e-07 7.6454417e-05 0
4.5267353e-07 7.6452314e-05 0
8.2665446e-07 6.4816841e-06 0
1.0582026e-07 7.6459168e-05 0
8.4542245e-07 7.6454548e-05 0
9.1141527e-07 6.5711383e-06 0
-9.1158813e-07 6.5712147e-06 0
-1.2512533e-07 7.6454089e-05 0
2.4502958e-08 7.6455428e-05 0
3.1839422e-15 6.4952387e-06 0
-2.4502958e-08 7.6455428e-05 0
1.2512533e-07 7.6454089e-05 0
9.1158768e-07 6.5712147e-06 0
-9.1159615e-07 6.5711934e-06 0
-3.604716e-07 7.645374e-05 0
3.6084072e-07 7.6453885e-05 0
-1.5831376e-06 6.1341129e-06 0
-5.2597614e-05 6.8677286e-07 0
4.6786736e-06 0.00015337867 0
-0.00010174532 0.00013361491 0
-0.00018817234 2.5079447e-05 0
-0.00016221912 0.00017435163 0
-0.00081348664 0.00010185318 0
-0.0028342463 3.8606642e-05 0
0.0038836326 4.8818205e-05 0
0.0011953186 2.5189847e-05 0
0.00018414971 9.3071212e-05 0
0.00015077433 0.00012290853 0
0.00015368905 0.00010054029 0
0.0001000905 -6.5597178e-06 0
7.5670199e-05 7.5560347e-05 0
6.8924733e-06 7.1783063e-05 0
3.5870012e-06 -6.4535866e-09 0
-3.6647035e-07 6.2356205e-09 0
-1.7277424e-07 7.1743882e-05 0
-5.2757027e-08 7.1744842e-05 0
5.3519625e-07 7.1744085e-05 0
3.9760053e-12 6.953784e-05 0
-4.9763435e-07 7.1744522e-05 0
-2.8397722e-07 7.1744944e-05 0
-2.1638478e-07 7.1744857e-05 0
-2.7892452e-07 7.1745322e-05 0
5.1221861e-08 7.1745584e-05 0
-3.8320412e-08 5.3299642e-11 0
4.5671612e-07 7.1748218e-05 0
3.9966363e-07 7.1745686e-05 0
3.6723296e-07 5.8784022e-09 0
-3.6723276e-07 5.8784391e-09 0
-3.8933231e-07 7.17453e-05 0
1.3768428e-07 7.1745832e-05 0
1.2246203e-15 4.2169912e-09 0