<?xml version="1.0" ?>

<VTKFile type="UnstructuredGrid" version="0.1" byte_order="BigEndian">

<UnstructuredGrid>

<Piece NumberOfPoints= " 2009 " NumberOfCells=" 2009 ">

<PointData Scalars="Pressure" Vectors="Velocity">

<DataArray type="Float32" Name="Pressure" format="ascii">

14.5919 15.343 17.7036 11.1584 15.4503 6.97391 7.40308 7.40308 7.72496 7.72496 7.40308 7.40308 7.40308 7.51037 7.40308 7.40308 7.40308 7.40308 7.40308 6.86661 7.40308 7.40308 7.72496 7.72496 7.40308 7.40308 6.97391 7.40308 7.40308 7.72496 7.72496 7.40308 7.40308 7.72496 7.72496 9.97815 21.03 8.15414 12.8752 11.2657 17.489 20.8154 19.4205 17.489 12.0168 19.957 4.07701 9.22708 9.22708 5.90098 5.90098 9.22708 9.11979 9.11979 7.93955 9.11979 9.11979 9.11979 9.11979 9.22708 4.07701 9.22708 9.22708 6.00827 6.00827 9.22708 9.22708 4.07701 9.22708 9.22708 6.00827 6.00827 9.22708 9.22708 6.00827 6.00827 9.22708 17.8109 8.26143 14.1627 14.27 11.6949 20.7081 17.2744 18.0255 12.2314 18.8839 6.86661 8.04684 8.04684 7.93955 7.93955 7.93955 7.93955 7.93955 4.93535 7.93955 7.93955 7.93955 7.93955 7.93955 6.43744 7.93955 7.93955 7.93955 7.93955 7.93955 7.93955 6.43744 7.93955 7.93955 7.93955 7.93955 8.04684 8.04684 7.93955 7.93955 8.04684 16.3087 10.8365 14.8065 12.7679 17.0598 9.44167 8.9052 7.51037 1.28747 10.1927 5.47181 1.07289 1.07289 5.04264 5.04264 1.07289 1.07289 1.07289 3.43327 1.07289 1.07289 1.07289 1.07289 1.07289 5.04264 1.07289 1.07289 5.04264 5.04264 1.07289 1.07289 5.04264 1.07289 1.07289 5.04264 5.04264 1.07289 1.07289 5.04264 5.04264 1.39476 10.1927 5.25722 9.22708 10.4073 10.5146 14.8065 8.58331 6.97391 2.36036 16.0941 0.321865 7.72496 7.72496 0 0 7.72496 7.72496 7.72496 0.107288 7.72496 7.72496 7.72496 7.72496 7.72496 0 7.72496 7.72496 0 0 7.72496 7.72496 0 7.72496 7.72496 0 0 7.72496 7.72496 0 0 9.97815 20.8154 3.86243 16.416 17.489 20.6008 11.9095 8.26143 8.9052 10.8365 0.75102 0 0.321865 0.321865 0 0 0.321865 0.321865 0.321865 7.0812 0.321865 0.321865 0.321865 0.321865 0.321865 0 0.321865 0.321865 0 0 0.321865 0.321865 0 0.321865 0.321865 0 0 0.321865 0.321865 0 0 0.429154 1.9312 5.14993 7.93955 5.90098 7.93955 13.6262 17.9182 16.7379 0.965598 13.5189 1.07289 0 0 0 0 0 0 0 0.643732 0 0 0 0 0 0 0 0 0 0 0 0 0 0 0 0 0 0 0 0 0 0.321865 7.72496 1.07289 8.04684 9.22708 7.51037 8.7979 9.22708 8.04684 1.07289 9.22708 0.321865 0 0 0 0 0 0 0 0 0 0 0 0 0 0 0 0 0 0 0 0 0 0 0 0 0 0 0 0 0 0.321865 7.72496 1.07289 8.04684 9.22708 7.40308 7.72496 5.90098 7.93955 5.04264 0 0 0 0 0 0 0 0 0 0 0 0 0 0 0 0 0 0 0 0 0 0 0 0 0 0 0 0 0 0 0 0 0 5.04264 7.93955 5.90098 7.72496 7.72496 5.90098 7.93955 5.04264 0 0 0 0 0 0 0 0 0 0 0 0 0 0 0 0 0 0 0 0 0 0 0 0 0 0 0 0 0 0 0 0 0 5.04264 7.93955 5.90098 7.72496 7.40308 9.22708 7.93955 1.07289 7.72496 0.321865 0 0 0 0 0 0 0 0 0 0 0 0 0 0 0 0 0 0 0 0 0 0 0 0 0 0 0 0 0 0.321865 7.72496 1.07289 7.93955 9.22708 7.40308 7.40308 9.11979 7.93955 1.07289 7.72496 0.321865 0 0 0 0 0 0 0 0 0 0 0 0 0 0 0 0 0 0 0 0 0 0 0 0 0 0 0 0 0 0.321865 7.72496 1.07289 7.93955 9.11979 7.40308 7.40308 9.11979 7.93955 1.07289 7.72496 0.321865 0 0 0 0 0 0 0 0 0 0 0 0 0 0 0 0 0 0 0 0 0 0 0 0 0 0 0 0 0 0.321865 7.72496 1.07289 7.93955 9.11979 7.40308 7.51037 7.93955 4.93535 3.43327 0.107288 7.0812 0.643732 0 0 0 0 0 0 0 0 0 0 0 0 0 0 0 0 0 0 0 0 0 0 0 0 0 0 0 0.643732 7.0812 0.107288 3.43327 4.93535 7.93955 7.51037 7.40308 9.11979 7.93955 1.07289 7.72496 0.321865 0 0 0 0 0 0 0 0 0 0 0 0 0 0 0 0 0 0 0 0 0 0 0 0 0 0 0 0 0 0.321865 7.72496 1.07289 7.93955 9.11979 7.40308 7.40308 9.11979 7.93955 1.07289 7.72496 0.321865 0 0 0 0 0 0 0 0 0 0 0 0 0 0 0 0 0 0 0 0 0 0 0 0 0 0 0 0 0 0.321865 7.72496 1.07289 7.93955 9.11979 7.40308 7.40308 9.11979 7.93955 1.07289 7.72496 0.321865 0 0 0 0 0 0 0 0 0 0 0 0 0 0 0 0 0 0 0 0 0 0 0 0 0 0 0 0 0 0.321865 7.72496 1.07289 7.93955 9.11979 7.40308 7.40308 9.11979 7.93955 1.07289 7.72496 0.321865 0 0 0 0 0 0 0 0 0 0 0 0 0 0 0 0 0 0 0 0 0 0 0 0 0 0 0 0 0 0.321865 7.72496 1.07289 7.93955 9.11979 7.40308 7.40308 9.22708 7.93955 1.07289 7.72496 0.321865 0 0 0 0 0 0 0 0 0 0 0 0 0 0 0 0 0 0 0 0 0 0 0 0 0 0 0 0 0 0.321865 7.72496 1.07289 7.93955 9.22708 7.40308 6.86661 4.07701 6.43744 5.04264 0 0 0 0 0 0 0 0 0 0 0 0 0 0 0 0 0 0 0 0 0 0 0 0 0 0 0 0 0 0 0 0 0 5.04264 6.43744 4.07701 6.86661 7.40308 9.22708 7.93955 1.07289 7.72496 0.321865 0 0 0 0 0 0 0 0 0 0 0 0 0 0 0 0 0 0 0 0 0 0 0 0 0 0 0 0 0 0.321865 7.72496 1.07289 7.93955 9.22708 7.40308 7.40308 9.22708 7.93955 1.07289 7.72496 0.321865 0 0 0 0 0 0 0 0 0 0 0 0 0 0 0 0 0 0 0 0 0 0 0 0 0 0 0 0 0 0.321865 7.72496 1.07289 7.93955 9.22708 7.40308 7.72496 6.00827 7.93955 5.04264 0 0 0 0 0 0 0 0 0 0 0 0 0 0 0 0 0 0 0 0 0 0 0 0 0 0 0 0 0 0 0 0 0 5.04264 7.93955 6.00827 7.72496 7.72496 6.00827 7.93955 5.04264 0 0 0 0 0 0 0 0 0 0 0 0 0 0 0 0 0 0 0 0 0 0 0 0 0 0 0 0 0 0 0 0 0 5.04264 7.93955 6.00827 7.72496 7.40308 9.22708 7.93955 1.07289 7.72496 0.321865 0 0 0 0 0 0 0 0 0 0 0 0 0 0 0 0 0 0 0 0 0 0 0 0 0 0 0 0 0 0.321865 7.72496 1.07289 7.93955 9.22708 7.40308 7.40308 9.22708 7.93955 1.07289 7.72496 0.321865 0 0 0 0 0 0 0 0 0 0 0 0 0 0 0 0 0 0 0 0 0 0 0 0 0 0 0 0 0 0.321865 7.72496 1.07289 7.93955 9.22708 7.40308 6.97391 4.07701 6.43744 5.04264 0 0 0 0 0 0 0 0 0 0 0 0 0 0 0 0 0 0 0 0 0 0 0 0 0 0 0 0 0 0 0 0 0 5.04264 6.43744 4.07701 6.97391 7.40308 9.22708 7.93955 1.07289 7.72496 0.321865 0 0 0 0 0 0 0 0 0 0 0 0 0 0 0 0 0 0 0 0 0 0 0 0 0 0 0 0 0 0.321865 7.72496 1.07289 7.93955 9.22708 7.40308 7.40308 9.22708 7.93955 1.07289 7.72496 0.321865 0 0 0 0 0 0 0 0 0 0 0 0 0 0 0 0 0 0 0 0 0 0 0 0 0 0 0 0 0 0.321865 7.72496 1.07289 7.93955 9.22708 7.40308 7.72496 6.00827 7.93955 5.04264 0 0 0 0 0 0 0 0 0 0 0 0 0 0 0 0 0 0 0 0 0 0 0 0 0 0 0 0 0 0 0 0 0 5.04264 7.93955 6.00827 7.72496 7.72496 6.00827 7.93955 5.04264 0 0 0 0 0 0 0 0 0 0 0 0 0 0 0 0 0 0 0 0 0 0 0 0 0 0 0 0 0 0 0 0 0 5.04264 7.93955 6.00827 7.72496 7.40308 9.22708 8.04684 1.07289 7.72496 0.321865 0 0 0 0 0 0 0 0 0 0 0 0 0 0 0 0 0 0 0 0 0 0 0 0 0 0 0 0 0 0.321865 7.72496 1.07289 8.04684 9.22708 7.40308 7.40308 9.22708 8.04684 1.07289 7.72496 0.321865 0 0 0 0 0 0 0 0 0 0 0 0 0 0 0 0 0 0 0 0 0 0 0 0 0 0 0 0 0 0.321865 7.72496 1.07289 8.04684 9.22708 7.40308 7.72496 6.00827 7.93955 5.04264 0 0 0 0 0 0 0 0 0 0 0 0 0 0 0 0 0 0 0 0 0 0 0 0 0 0 0 0 0 0 0 0 0 5.04264 7.83225 6.00827 7.72496 7.72496 6.00827 7.93955 5.04264 0 0 0 0 0 0 0 0 0 0.643732 0 0 0 0 0 0 0 0 0 0 0 0 0 0 0 0 0 0 0 0 0 0 0 5.04264 7.83225 6.00827 7.72496 9.97815 9.22708 8.04684 1.39476 9.97815 0.429154 0.321865 0.321865 0 0 0.321865 0.321865 0.321865 7.0812 0.321865 0.321865 0.321865 0.321865 0.321865 0 0.321865 0.321865 0 0 0.321865 0.321865 0 0.321865 0.321865 0 0 0.321865 0.321865 0 0 0.536443 9.87085 1.07289 8.04684 9.22708 9.33438 21.03 17.8109 16.3087 10.1927 20.8154 1.9312 7.72496 7.72496 0 0 7.72496 7.72496 7.72496 0.107288 7.72496 7.72496 7.72496 7.72496 7.72496 0 7.72496 7.72496 0 0 7.72496 7.72496 0 7.72496 7.72496 0 0 7.72496 7.72496 0 0 9.87085 20.6008 4.50618 16.416 17.3817 19.957 8.15414 8.26143 10.8365 5.25722 3.86243 5.14993 1.07289 1.07289 5.04264 5.04264 1.07289 1.07289 1.07289 3.43327 1.07289 1.07289 1.07289 1.07289 1.07289 5.04264 1.07289 1.07289 5.04264 5.04264 1.07289 1.07289 5.04264 1.07289 1.07289 5.04264 5.04264 1.07289 1.07289 5.04264 5.04264 1.07289 4.50618 9.01249 9.97815 8.58331 10.6219 12.8752 14.1627 14.8065 9.22708 16.416 7.93955 8.04684 8.04684 7.93955 7.93955 7.93955 7.93955 7.93955 4.93535 7.93955 7.93955 7.93955 7.93955 7.93955 6.43744 7.93955 7.93955 7.93955 7.93955 7.93955 7.93955 6.43744 7.93955 7.93955 7.93955 7.93955 8.04684 8.04684 7.83225 7.83225 8.04684 16.416 9.97815 14.8065 13.9481 12.3387 11.2657 14.27 12.7679 10.4073 17.489 5.90098 9.22708 9.22708 5.90098 5.90098 9.22708 9.11979 9.11979 7.93955 9.11979 9.11979 9.11979 9.11979 9.22708 4.07701 9.22708 9.22708 6.00827 6.00827 9.22708 9.22708 4.07701 9.22708 9.22708 6.00827 6.00827 9.22708 9.22708 6.00827 6.00827 9.22708 17.3817 8.58331 13.9481 14.27 11.373 17.489 11.6949 17.0598 10.5146 20.6008 7.93955 7.51037 7.40308 7.72496 7.72496 7.40308 7.40308 7.40308 7.51037 7.40308 7.40308 7.40308 7.40308 7.40308 6.86661 7.40308 7.40308 7.72496 7.72496 7.40308 7.40308 6.97391 7.40308 7.40308 7.72496 7.72496 7.40308 7.40308 7.72496 7.72496 9.33438 19.957 10.6219 12.3387 11.373 18.7766 0.1 0.1 0.1 0.1 0.1 0.1 0.1 0.1 0.1 0.1 0.1 0.1 0.1 0.1 0.1 0.1 0.1 0.1 0.1 0.1 0.1 0.1 0.1 0.1 0.1 0.1 0.1 0.1 0.1 0.1 0.1 0.1 0.1 0.1 0.1 0.1 0.1 0.1 0.1 0.1 0.1 0.1 0.1 0.1 0.1 0.1 0.1 0.1 0.1 0.1 0.1 0.1 0.1 0.1 0.1 0.1 0.1 0.1 0.1 0.1 0.1 0.1 0.1 0.1 0.1 0.1 0.1 0.1 0.1 0.1 0.1 0.1 0.1 0.1 0.1 0.1 0.1 0.1 0.1 0.1 0.1 0.1 0.1 0.1 0.1 0.1 0.1 0.1 0.1 0.1 0.1 0.1 0.1 0.1 0.1 0.1 0.1 0.1 0.1 0.1 0.1 0.1 0.1 0.1 0.1 0.1 0.1 0.1 0.1 0.1 0.1 0.1 0.1 0.1 0.1 0.1 0.1 0.1 0.1 0.1 0.1 0.1 0.1 0.1 0.1 0.1 0.1 0.1 0.1 0.1 0.1 0.1 0.1 0.1 0.1 0.1 0.1 0.1 0.1 0.1 0.1 0.1 0.1 0.1 0.1 0.1 0.1 0.1 0.1 0.1 0.1 0.1 0.1 0.1 0.1 0.1 0.1 0.1 0.1 0.1 0.1 0.1 0.1 0.1 0.1 0.1 0.1 0.1 0.1 0.1 0.1 0.1 0.1 0.1 0.1 0.1 0.1 0.1 0.1 0.1 0.1 0.1 0.1 0.1 0.1 0.1 0.1 0.1 0.1 0.1 0.1 0.1 0.1 0.1 0.1 0.1 0.1 0.1 0.1 0.1 0.1 0.1 0.1 0.1 0.1 0.1 0.1 0.1 0.1 0.1 0.1 0.1 0.1 0.1 0.1 0.1 0.1 0.1 0.1 0.1 0.1 0.1 0.1 0.1 0.1 0.1 0.1 0.1 0.1 0.1 0.1 0.1 0.1 0.1 0.1 0.1 0.1 0.1 0.1 0.1 0.1 0.1 0.1 0.1 0.1 0.1 0.1 0.1 0.1 0.1 0.1 0.1 0.1 0.1 0.1 0.1 0.1 0.1 0.1 0.1 0.1 0.1 0.1 0.1 0.1 0.1 0.1 0.1 0.1 0.1 0.1 0.1 0.1 0.1 0.1 0.1 0.1 0.1 0.1 0.1 0.1 0.1 0.1 0.1 0.1 0.1 0.1 0.1 0.1 0.1 0.1 0.1 0.1 0.1 0.1 0.1 0.1 0.1 0.1 0.1 0.1 0.1 0.1 0.1 0.1 0.1 0.1 0.1 0.1 0.1 0.1 0.1 0.1 0.1 0.1 0.1 0.1 0.1 0.1 0.1 0.1 0.1 0.1 0.1 0.1 0.1 0.1 0.1 
</DataArray>

<DataArray type="Float32" Name="Density" format="ascii">
1000.02 1000.02 1000.02 1000.01 1000.02 1000.01 1000.01 1000.01 1000.01 1000.01 1000.01 1000.01 1000.01 1000.01 1000.01 1000.01 1000.01 1000.01 1000.01 1000.01 1000.01 1000.01 1000.01 1000.01 1000.01 1000.01 1000.01 1000.01 1000.01 1000.01 1000.01 1000.01 1000.01 1000.01 1000.01 1000.01 1000.02 1000.01 1000.01 1000.01 1000.02 1000.02 1000.02 1000.02 1000.01 1000.02 1000 1000.01 1000.01 1000.01 1000.01 1000.01 1000.01 1000.01 1000.01 1000.01 1000.01 1000.01 1000.01 1000.01 1000 1000.01 1000.01 1000.01 1000.01 1000.01 1000.01 1000 1000.01 1000.01 1000.01 1000.01 1000.01 1000.01 1000.01 1000.01 1000.01 1000.02 1000.01 1000.02 1000.02 1000.01 1000.02 1000.02 1000.02 1000.01 1000.02 1000.01 1000.01 1000.01 1000.01 1000.01 1000.01 1000.01 1000.01 1000.01 1000.01 1000.01 1000.01 1000.01 1000.01 1000.01 1000.01 1000.01 1000.01 1000.01 1000.01 1000.01 1000.01 1000.01 1000.01 1000.01 1000.01 1000.01 1000.01 1000.01 1000.01 1000.01 1000.02 1000.01 1000.02 1000.01 1000.02 1000.01 1000.01 1000.01 1000 1000.01 1000.01 1000 1000 1000.01 1000.01 1000 1000 1000 1000 1000 1000 1000 1000 1000 1000.01 1000 1000 1000.01 1000.01 1000 1000 1000.01 1000 1000 1000.01 1000.01 1000 1000 1000.01 1000.01 1000 1000.01 1000.01 1000.01 1000.01 1000.01 1000.02 1000.01 1000.01 1000 1000.02 1000 1000.01 1000.01 1000 1000 1000.01 1000.01 1000.01 1000 1000.01 1000.01 1000.01 1000.01 1000.01 1000 1000.01 1000.01 1000 1000 1000.01 1000.01 1000 1000.01 1000.01 1000 1000 1000.01 1000.01 1000 1000 1000.01 1000.02 1000 1000.02 1000.02 1000.02 1000.01 1000.01 1000.01 1000.01 1000 1000 1000 1000 1000 1000 1000 1000 1000 1000.01 1000 1000 1000 1000 1000 1000 1000 1000 1000 1000 1000 1000 1000 1000 1000 1000 1000 1000 1000 1000 1000 1000 1000 1000.01 1000.01 1000.01 1000.01 1000.02 1000.02 1000.02 1000 1000.02 1000 1000 1000 1000 1000 1000 1000 1000 1000 1000 1000 1000 1000 1000 1000 1000 1000 1000 1000 1000 1000 1000 1000 1000 1000 1000 1000 1000 1000 1000 1000 1000.01 1000 1000.01 1000.01 1000.01 1000.01 1000.01 1000.01 1000 1000.01 1000 1000 1000 1000 1000 1000 1000 1000 1000 1000 1000 1000 1000 1000 1000 1000 1000 1000 1000 1000 1000 1000 1000 1000 1000 1000 1000 1000 1000 1000 1000 1000.01 1000 1000.01 1000.01 1000.01 1000.01 1000.01 1000.01 1000.01 1000 1000 1000 1000 1000 1000 1000 1000 1000 1000 1000 1000 1000 1000 1000 1000 1000 1000 1000 1000 1000 1000 1000 1000 1000 1000 1000 1000 1000 1000 1000 1000 1000 1000.01 1000.01 1000.01 1000.01 1000.01 1000.01 1000.01 1000.01 1000 1000 1000 1000 1000 1000 1000 1000 1000 1000 1000 1000 1000 1000 1000 1000 1000 1000 1000 1000 1000 1000 1000 1000 1000 1000 1000 1000 1000 1000 1000 1000 1000 1000.01 1000.01 1000.01 1000.01 1000.01 1000.01 1000.01 1000 1000.01 1000 1000 1000 1000 1000 1000 1000 1000 1000 1000 1000 1000 1000 1000 1000 1000 1000 1000 1000 1000 1000 1000 1000 1000 1000 1000 1000 1000 1000 1000 1000 1000.01 1000 1000.01 1000.01 1000.01 1000.01 1000.01 1000.01 1000 1000.01 1000 1000 1000 1000 1000 1000 1000 1000 1000 1000 1000 1000 1000 1000 1000 1000 1000 1000 1000 1000 1000 1000 1000 1000 1000 1000 1000 1000 1000 1000 1000 1000.01 1000 1000.01 1000.01 1000.01 1000.01 1000.01 1000.01 1000 1000.01 1000 1000 1000 1000 1000 1000 1000 1000 1000 1000 1000 1000 1000 1000 1000 1000 1000 1000 1000 1000 1000 1000 1000 1000 1000 1000 1000 1000 1000 1000 1000 1000.01 1000 1000.01 1000.01 1000.01 1000.01 1000.01 1000.01 1000 1000 1000.01 1000 1000 1000 1000 1000 1000 1000 1000 1000 1000 1000 1000 1000 1000 1000 1000 1000 1000 1000 1000 1000 1000 1000 1000 1000 1000 1000 1000 1000 1000.01 1000 1000 1000.01 1000.01 1000.01 1000.01 1000.01 1000.01 1000 1000.01 1000 1000 1000 1000 1000 1000 1000 1000 1000 1000 1000 1000 1000 1000 1000 1000 1000 1000 1000 1000 1000 1000 1000 1000 1000 1000 1000 1000 1000 1000 1000 1000.01 1000 1000.01 1000.01 1000.01 1000.01 1000.01 1000.01 1000 1000.01 1000 1000 1000 1000 1000 1000 1000 1000 1000 1000 1000 1000 1000 1000 1000 1000 1000 1000 1000 1000 1000 1000 1000 1000 1000 1000 1000 1000 1000 1000 1000 1000.01 1000 1000.01 1000.01 1000.01 1000.01 1000.01 1000.01 1000 1000.01 1000 1000 1000 1000 1000 1000 1000 1000 1000 1000 1000 1000 1000 1000 1000 1000 1000 1000 1000 1000 1000 1000 1000 1000 1000 1000 1000 1000 1000 1000 1000 1000.01 1000 1000.01 1000.01 1000.01 1000.01 1000.01 1000.01 1000 1000.01 1000 1000 1000 1000 1000 1000 1000 1000 1000 1000 1000 1000 1000 1000 1000 1000 1000 1000 1000 1000 1000 1000 1000 1000 1000 1000 1000 1000 1000 1000 1000 1000.01 1000 1000.01 1000.01 1000.01 1000.01 1000.01 1000.01 1000 1000.01 1000 1000 1000 1000 1000 1000 1000 1000 1000 1000 1000 1000 1000 1000 1000 1000 1000 1000 1000 1000 1000 1000 1000 1000 1000 1000 1000 1000 1000 1000 1000 1000.01 1000 1000.01 1000.01 1000.01 1000.01 1000 1000.01 1000.01 1000 1000 1000 1000 1000 1000 1000 1000 1000 1000 1000 1000 1000 1000 1000 1000 1000 1000 1000 1000 1000 1000 1000 1000 1000 1000 1000 1000 1000 1000 1000 1000 1000 1000.01 1000.01 1000 1000.01 1000.01 1000.01 1000.01 1000 1000.01 1000 1000 1000 1000 1000 1000 1000 1000 1000 1000 1000 1000 1000 1000 1000 1000 1000 1000 1000 1000 1000 1000 1000 1000 1000 1000 1000 1000 1000 1000 1000 1000.01 1000 1000.01 1000.01 1000.01 1000.01 1000.01 1000.01 1000 1000.01 1000 1000 1000 1000 1000 1000 1000 1000 1000 1000 1000 1000 1000 1000 1000 1000 1000 1000 1000 1000 1000 1000 1000 1000 1000 1000 1000 1000 1000 1000 1000 1000.01 1000 1000.01 1000.01 1000.01 1000.01 1000.01 1000.01 1000.01 1000 1000 1000 1000 1000 1000 1000 1000 1000 1000 1000 1000 1000 1000 1000 1000 1000 1000 1000 1000 1000 1000 1000 1000 1000 1000 1000 1000 1000 1000 1000 1000 1000 1000.01 1000.01 1000.01 1000.01 1000.01 1000.01 1000.01 1000.01 1000 1000 1000 1000 1000 1000 1000 1000 1000 1000 1000 1000 1000 1000 1000 1000 1000 1000 1000 1000 1000 1000 1000 1000 1000 1000 1000 1000 1000 1000 1000 1000 1000 1000.01 1000.01 1000.01 1000.01 1000.01 1000.01 1000.01 1000 1000.01 1000 1000 1000 1000 1000 1000 1000 1000 1000 1000 1000 1000 1000 1000 1000 1000 1000 1000 1000 1000 1000 1000 1000 1000 1000 1000 1000 1000 1000 1000 1000 1000.01 1000 1000.01 1000.01 1000.01 1000.01 1000.01 1000.01 1000 1000.01 1000 1000 1000 1000 1000 1000 1000 1000 1000 1000 1000 1000 1000 1000 1000 1000 1000 1000 1000 1000 1000 1000 1000 1000 1000 1000 1000 1000 1000 1000 1000 1000.01 1000 1000.01 1000.01 1000.01 1000.01 1000 1000.01 1000.01 1000 1000 1000 1000 1000 1000 1000 1000 1000 1000 1000 1000 1000 1000 1000 1000 1000 1000 1000 1000 1000 1000 1000 1000 1000 1000 1000 1000 1000 1000 1000 1000 1000 1000.01 1000.01 1000 1000.01 1000.01 1000.01 1000.01 1000 1000.01 1000 1000 1000 1000 1000 1000 1000 1000 1000 1000 1000 1000 1000 1000 1000 1000 1000 1000 1000 1000 1000 1000 1000 1000 1000 1000 1000 1000 1000 1000 1000 1000.01 1000 1000.01 1000.01 1000.01 1000.01 1000.01 1000.01 1000 1000.01 1000 1000 1000 1000 1000 1000 1000 1000 1000 1000 1000 1000 1000 1000 1000 1000 1000 1000 1000 1000 1000 1000 1000 1000 1000 1000 1000 1000 1000 1000 1000 1000.01 1000 1000.01 1000.01 1000.01 1000.01 1000.01 1000.01 1000.01 1000 1000 1000 1000 1000 1000 1000 1000 1000 1000 1000 1000 1000 1000 1000 1000 1000 1000 1000 1000 1000 1000 1000 1000 1000 1000 1000 1000 1000 1000 1000 1000 1000 1000.01 1000.01 1000.01 1000.01 1000.01 1000.01 1000.01 1000.01 1000 1000 1000 1000 1000 1000 1000 1000 1000 1000 1000 1000 1000 1000 1000 1000 1000 1000 1000 1000 1000 1000 1000 1000 1000 1000 1000 1000 1000 1000 1000 1000 1000 1000.01 1000.01 1000.01 1000.01 1000.01 1000.01 1000.01 1000 1000.01 1000 1000 1000 1000 1000 1000 1000 1000 1000 1000 1000 1000 1000 1000 1000 1000 1000 1000 1000 1000 1000 1000 1000 1000 1000 1000 1000 1000 1000 1000 1000 1000.01 1000 1000.01 1000.01 1000.01 1000.01 1000.01 1000.01 1000 1000.01 1000 1000 1000 1000 1000 1000 1000 1000 1000 1000 1000 1000 1000 1000 1000 1000 1000 1000 1000 1000 1000 1000 1000 1000 1000 1000 1000 1000 1000 1000 1000 1000.01 1000 1000.01 1000.01 1000.01 1000.01 1000.01 1000.01 1000.01 1000 1000 1000 1000 1000 1000 1000 1000 1000 1000 1000 1000 1000 1000 1000 1000 1000 1000 1000 1000 1000 1000 1000 1000 1000 1000 1000 1000 1000 1000 1000 1000 1000 1000.01 1000.01 1000.01 1000.01 1000.01 1000.01 1000.01 1000.01 1000 1000 1000 1000 1000 1000 1000 1000 1000 1000 1000 1000 1000 1000 1000 1000 1000 1000 1000 1000 1000 1000 1000 1000 1000 1000 1000 1000 1000 1000 1000 1000 1000 1000.01 1000.01 1000.01 1000.01 1000.01 1000.01 1000.01 1000 1000.01 1000 1000 1000 1000 1000 1000 1000 1000 1000.01 1000 1000 1000 1000 1000 1000 1000 1000 1000 1000 1000 1000 1000 1000 1000 1000 1000 1000 1000 1000 1000 1000 1000.01 1000 1000.01 1000.01 1000.01 1000.02 1000.02 1000.02 1000.01 1000.02 1000 1000.01 1000.01 1000 1000 1000.01 1000.01 1000.01 1000 1000.01 1000.01 1000.01 1000.01 1000.01 1000 1000.01 1000.01 1000 1000 1000.01 1000.01 1000 1000.01 1000.01 1000 1000 1000.01 1000.01 1000 1000 1000.01 1000.02 1000.01 1000.02 1000.02 1000.02 1000.01 1000.01 1000.01 1000.01 1000 1000.01 1000 1000 1000.01 1000.01 1000 1000 1000 1000 1000 1000 1000 1000 1000 1000.01 1000 1000 1000.01 1000.01 1000 1000 1000.01 1000 1000 1000.01 1000.01 1000 1000 1000.01 1000.01 1000 1000.01 1000.01 1000.01 1000.01 1000.01 1000.01 1000.02 1000.02 1000.01 1000.02 1000.01 1000.01 1000.01 1000.01 1000.01 1000.01 1000.01 1000.01 1000.01 1000.01 1000.01 1000.01 1000.01 1000.01 1000.01 1000.01 1000.01 1000.01 1000.01 1000.01 1000.01 1000.01 1000.01 1000.01 1000.01 1000.01 1000.01 1000.01 1000.01 1000.01 1000.01 1000.02 1000.01 1000.02 1000.02 1000.01 1000.01 1000.02 1000.01 1000.01 1000.02 1000.01 1000.01 1000.01 1000.01 1000.01 1000.01 1000.01 1000.01 1000.01 1000.01 1000.01 1000.01 1000.01 1000.01 1000 1000.01 1000.01 1000.01 1000.01 1000.01 1000.01 1000 1000.01 1000.01 1000.01 1000.01 1000.01 1000.01 1000.01 1000.01 1000.01 1000.02 1000.01 1000.02 1000.02 1000.01 1000.02 1000.01 1000.02 1000.01 1000.02 1000.01 1000.01 1000.01 1000.01 1000.01 1000.01 1000.01 1000.01 1000.01 1000.01 1000.01 1000.01 1000.01 1000.01 1000.01 1000.01 1000.01 1000.01 1000.01 1000.01 1000.01 1000.01 1000.01 1000.01 1000.01 1000.01 1000.01 1000.01 1000.01 1000.01 1000.01 1000.02 1000.01 1000.01 1000.01 1000.02 1000 1000 1000 1000 1000 1000 1000 1000 1000 1000 1000 1000 1000 1000 1000 1000 1000 1000 1000 1000 1000 1000 1000 1000 1000 1000 1000 1000 1000 1000 1000 1000 1000 1000 1000 1000 1000 1000 1000 1000 1000 1000 1000 1000 1000 1000 1000 1000 1000 1000 1000 1000 1000 1000 1000 1000 1000 1000 1000 1000 1000 1000 1000 1000 1000 1000 1000 1000 1000 1000 1000 1000 1000 1000 1000 1000 1000 1000 1000 1000 1000 1000 1000 1000 1000 1000 1000 1000 1000 1000 1000 1000 1000 1000 1000 1000 1000 1000 1000 1000 1000 1000 1000 1000 1000 1000 1000 1000 1000 1000 1000 1000 1000 1000 1000 1000 1000 1000 1000 1000 1000 1000 1000 1000 1000 1000 1000 1000 1000 1000 1000 1000 1000 1000 1000 1000 1000 1000 1000 1000 1000 1000 1000 1000 1000 1000 1000 1000 1000 1000 1000 1000 1000 1000 1000 1000 1000 1000 1000 1000 1000 1000 1000 1000 1000 1000 1000 1000 1000 1000 1000 1000 1000 1000 1000 1000 1000 1000 1000 1000 1000 1000 1000 1000 1000 1000 1000 1000 1000 1000 1000 1000 1000 1000 1000 1000 1000 1000 1000 1000 1000 1000 1000 1000 1000 1000 1000 1000 1000 1000 1000 1000 1000 1000 1000 1000 1000 1000 1000 1000 1000 1000 1000 1000 1000 1000 1000 1000 1000 1000 1000 1000 1000 1000 1000 1000 1000 1000 1000 1000 1000 1000 1000 1000 1000 1000 1000 1000 1000 1000 1000 1000 1000 1000 1000 1000 1000 1000 1000 1000 1000 1000 1000 1000 1000 1000 1000 1000 1000 1000 1000 1000 1000 1000 1000 1000 1000 1000 1000 1000 1000 1000 1000 1000 1000 1000 1000 1000 1000 1000 1000 1000 1000 1000 1000 1000 1000 1000 1000 1000 1000 1000 1000 1000 1000 1000 1000 1000 1000 1000 1000 1000 1000 1000 1000 1000 1000 1000 1000 1000 1000 1000 1000 1000 1000 1000 1000 1000 
</DataArray>
<DataArray type="Float32" Name="Velocity" NumberOfComponents="3" format="ascii">
0.0043028109 0.0060149757 0
0.00024034189 0.0058120727 0
-9.8473807e-05 0.005438739 0
0.0001038785 0.0047693145 0
8.979204e-05 0.0040047774 0
1.6627524e-05 0.0029172313 0
5.941302e-07 0.0040727546 0
6.7733509e-07 0.0040727467 0
4.75364e-07 0.0029298109 0
3.3395511e-06 0.0029284104 0
-7.6370003e-07 0.0040727425 0
1.4503533e-07 0.0040727551 0
3.9965919e-08 0.00407275 0
2.7219105e-10 0.0049773576 0
-5.3721603e-08 0.0040727528 0
-2.2705316e-07 0.004072756 0
-1.1089995e-06 0.004072756 0
3.5582559e-07 0.0040727607 0
1.0308448e-06 0.0040727369 0
6.4015222e-07 0.0029164394 0
2.4111256e-07 0.0040727542 0
2.6693573e-07 0.0040727584 0
-7.5338392e-07 0.0029207999 0
5.9827215e-07 0.0029207999 0
-3.5113476e-07 0.0040727546 0
-1.5019546e-07 0.0040727551 0
4.5133676e-15 0.0029165146 0
1.5019548e-07 0.0040727551 0
3.5113476e-07 0.0040727546 0
-5.9150034e-07 0.0029207999 0
1.6014837e-07 0.0029208013 0
-4.72355e-07 0.0040727546 0
4.7476533e-07 0.0040727546 0
-3.9971646e-06 0.0029209091 0
-5.9896394e-07 0.0029207964 0
-6.8902853e-05 0.0040663164 0
-0.00017266681 0.003934125 0
-0.00011572048 0.0029693334 0
-0.00093763217 0.0041254968 0
-0.00023431519 0.0038904347 0
-0.0045823599 0.0044028112 0
0.0041154618 0.0011442155 0
0.00079096435 0.0011704221 0
0.0002165928 0.00073913106 0
0.00014499866 0.00076695287 0
0.00026521817 0.00098273472 0
-4.2368148e-07 0.00079831388 0
5.1120301e-06 0.0011006356 0
7.5867056e-06 0.0011008275 0
-9.2538977e-07 0.00096624321 0
1.8111056e-07 0.00096603145 0
6.2081458e-06 0.0011011426 0
2.8076554e-06 0.0011013736 0
4.3096893e-06 0.0011014357 0
-6.5038671e-07 0.0014192855 0
1.4529555e-06 0.0011012505 0
1.8158727e-06 0.001101399 0
2.642442e-06 0.0011014444 0
2.1388053e-06 0.0011014278 0
-2.7939607e-06 0.0011012781 0
-8.2386711e-09 0.00079907221 0
-1.3413913e-06 0.001101265 0
-7.3172549e-07 0.0011012348 0
-9.9235376e-07 0.00096591626 0
9.6279814e-07 0.00096591655 0
2.4330702e-06 0.0011012432 0
9.4902464e-07 0.0011012291 0
6.1845636e-15 0.00079895929 0
-1.3651015e-06 0.0011012254 0
-3.8535941e-06 0.0011012286 0
-9.4218262e-07 0.00096591609 0
1.0935919e-06 0.00096591114 0
-5.8477713e-06 0.001100922 0
-4.5612251e-06 0.0011009123 0
-8.0937184e-07 0.00096578803 0
1.2679566e-06 0.00096589944 0
-4.0082516e-05 0.0011000489 0
-0.00019655646 0.0010634147 0
-0.00019541587 0.00069742964 0
-0.00040404894 0.00053765805 0
-0.00069616974 0.00070118438 0
-0.0038167865 0.00016735161 0
0.0036594069 0.00056031806 0
0.00055345189 0.000444176 0
0.00058876979 0.00024203268 0
0.00029174658 0.000145379 0
0.00021558638 0.00014580553 0
2.8638131e-05 0.00014876296 0
4.516799e-06 0.00019011195 0
7.522046e-06 0.0001893734 0
1.7306164e-06 0.00016383469 0
-3.4386758e-06 0.00016412786 0
-2.7365854e-06 0.00018905733 0
-1.7748199e-06 0.00018844735 0
2.7894698e-06 0.00018817718 0
2.949397e-07 0.00012909624 0
-8.4915519e-07 0.00018840867 0
5.5437414e-07 0.00018840644 0
-1.9728333e-08 0.00018838595 0
-6.0388254e-07 0.00018839023 0
2.7119909e-06 0.00018854448 0
-1.1072582e-06 0.00014994481 0
-1.1005765e-06 0.00018862274 0
2.1626565e-06 0.00018863665 0
4.0188447e-06 0.00016436685 0
-4.7520302e-06 0.00016438105 0
-1.7734956e-06 0.00018861296 0
1.5313443e-06 0.00018860515 0
1.4688003e-12 0.00014994075 0
-1.5199375e-06 0.00018860308 0
-2.6953653e-06 0.00018876791 0
-1.0789582e-06 0.00016424706 0
-2.264894e-06 0.00016403635 0
-3.6179465e-06 0.00018919073 0
5.2426577e-07 0.00018948267 0
2.0777602e-06 0.00016387113 0
-1.2447169e-05 0.0001636394 0
-2.3508683e-05 0.00019061245 0
-0.00015781504 0.00019725684 0
-0.00029807832 0.00016789215 0
-0.00036968954 0.00038271392 0
-0.00048883015 0.00048172683 0
-0.0039773099 0.00081878447 0
0.0041443184 0.00030728895 0
0.0009120648 0.00026753862 0
0.00042100748 0.00021128426 0
9.2341987e-05 0.00010427479 0
0.00012083416 9.5119918e-05 0
1.3558914e-05 6.7143941e-05 0
4.4589146e-06 9.6519449e-05 0
2.0528012e-06 9.6442149e-05 0
-8.8472405e-08 7.1477902e-05 0
4.7692365e-06 7.1452137e-05 0
-8.2181344e-07 9.6319862e-05 0
-9.004529e-08 9.6293741e-05 0
-3.2884478e-07 9.6271076e-05 0
-3.7967439e-07 0.00012097805 0
-3.3149703e-07 9.6266929e-05 0
-4.3175399e-07 9.629377e-05 0
2.9440244e-07 9.6293777e-05 0
1.1916395e-06 9.6292883e-05 0
5.1073067e-07 9.6315358e-05 0
6.4897739e-07 6.7603454e-05 0
4.6113942e-07 9.6321768e-05 0
4.0126383e-07 9.6319061e-05 0
-3.3583065e-06 7.1129354e-05 0
3.3557617e-06 7.1129507e-05 0
-4.0636391e-07 9.6318923e-05 0
1.9523483e-08 9.6318676e-05 0
-2.7212009e-15 6.7686196e-05 0
-1.9509311e-08 9.6318676e-05 0
4.0675823e-07 9.6319003e-05 0
-3.353824e-06 7.1129412e-05 0
3.3749616e-06 7.1128226e-05 0
1.5202731e-07 9.632243e-05 0
-1.2680304e-07 9.6324184e-05 0
-5.0648246e-06 7.1198323e-05 0
-8.4851818e-06 7.092017e-05 0
-2.0369642e-05 9.5434007e-05 0
-0.00016532731 3.7322447e-05 0
-0.00016648359 0.00017169905 0
-0.0001819812 0.00028435033 0
-0.00099842157 0.00013711894 0
-0.0040769731 0.00025151888 0
0.0041397065 0.0004568439 0
0.001002145 7.593623e-05 0
0.00026958261 0.00010539901 0
0.00013759735 8.4563631e-05 0
0.00012814834 0.00010928589 0
1.2210518e-05 2.8997083e-06 0
2.1787205e-06 0.00010142942 0
2.4713929e-06 0.00010140463 0
1.6670683e-06 3.0648612e-06 0
-1.193755e-06 3.0119759e-06 0
-1.5749603e-08 0.00010140641 0
-1.5935069e-07 0.00010139462 0
-1.2692583e-06 0.00010136147 0
-1.9421287e-07 7.2764662e-05 0
1.3941254e-06 0.00010135829 0
-3.518314e-07 0.00010139463 0
1.3597781e-07 0.00010139381 0
3.4037839e-07 0.00010139398 0
-8.5088971e-08 0.00010141937 0
5.3841927e-07 2.9917558e-06 0
7.5614645e-07 0.00010139907 0
2.4784549e-07 0.00010139732 0
7.389894e-07 3.0080651e-06 0
-7.3899497e-07 3.0080662e-06 0
-2.5005056e-07 0.00010139723 0
1.1745561e-08 0.00010139647 0
1.4352963e-15 2.996899e-06 0
-1.1745561e-08 0.00010139647 0
2.5005056e-07 0.00010139723 0
7.3899497e-07 3.0080662e-06 0
-7.3900117e-07 3.0080639e-06 0
2.851003e-07 0.00010139922 0
-2.851003e-07 0.00010139923 0
7.317613e-07 3.0082033e-06 0
-8.3878367e-06 3.0128185e-06 0
-4.7138332e-05 0.00010024781 0
-0.00014726633 0.00022662156 0
-7.7456134e-05 7.974953e-05 0
-0.00020096844 0.00013951764 0
-0.0010550715 0.00020958814 0
-0.0038942888 0.00027811006 0
0.0030799105 0.0001727917 0
0.00080356689 0.00016620562 0
0.00033246851 8.9533874e-05 0
8.2082115e-05 0.00012615773 0
3.7000678e-05 1.694841e-05 0
2.2278184e-06 -8.1359275e-08 0
-8.1592662e-09 7.5813796e-06 0
1.8986523e-08 7.5813455e-06 0
-2.5115771e-13 3.6526833e-09 0
2.6750433e-13 3.6022527e-09 0
-1.9168834e-08 7.5813396e-06 0
4.3800754e-09 7.5813409e-06 0
-1.3068707e-07 7.5812422e-06 0
1.2993697e-12 9.2429145e-05 0
1.3058717e-07 7.5812454e-06 0
-4.2544865e-09 7.5813414e-06 0
2.011288e-08 7.5813409e-06 0
-2.0356124e-08 7.581345e-06 0
1.9069731e-08 7.5813396e-06 0
-7.6158623e-14 3.5759784e-09 0
-2.0308033e-08 7.5813505e-06 0
1.9495626e-08 7.5813459e-06 0
-2.5972827e-13 3.601712e-09 0
2.5972833e-13 3.6017129e-09 0
-1.9495532e-08 7.5813414e-06 0
1.9977385e-08 7.5813432e-06 0
0 3.5862988e-09 0
-1.9977385e-08 7.5813432e-06 0
1.9495532e-08 7.5813414e-06 0
-2.5972833e-13 3.6017129e-09 0
2.5972817e-13 3.6017098e-09 0
-1.9704533e-08 7.5813423e-06 0
1.9704533e-08 7.5813423e-06 0
-2.597399e-13 3.601867e-09 0
-5.1438365e-09 3.595771e-09 0
-9.4171844e-07 8.8894622e-06 0
-1.1984522e-06 3.4629855e-05 0
-7.1230046e-05 9.308993e-06 0
-0.00016384981 2.9771916e-05 0
-0.00096366374 5.6102217e-06 0
-0.0029293757 1.8850546e-05 0
0.0040258784 5.0215327e-05 0
0.00114483 9.2017865e-05 0
0.00026419738 0.00012481329 0
7.6052253e-05 2.1786098e-05 0
0.0001762555 3.5847726e-05 0
1.8494275e-05 -7.5941159e-07 0
1.0477432e-07 1.1473663e-08 0
4.7905249e-09 1.1473162e-08 0
0 -4.7746509e-09 0
0 -4.7746509e-09 0
-4.7746509e-09 1.147316e-08 0
4.7746509e-09 1.1473157e-08 0
-4.3194099e-08 1.1459617e-08 0
0 8.8699198e-06 0
4.3194099e-08 1.1459618e-08 0
-4.7746509e-09 1.1473157e-08 0
4.7746509e-09 1.1473157e-08 0
-4.7746509e-09 1.1473158e-08 0
4.7746509e-09 1.1473165e-08 0
0 -4.7746509e-09 0
-4.7746562e-09 1.1473167e-08 0
4.7746562e-09 1.147316e-08 0
0 -4.7746509e-09 0
0 -4.7746509e-09 0
-4.7746562e-09 1.1473159e-08 0
4.7746562e-09 1.1473161e-08 0
0 -4.7746509e-09 0
-4.7746562e-09 1.1473161e-08 0
4.7746562e-09 1.1473159e-08 0
0 -4.7746509e-09 0
0 -4.7746509e-09 0
-4.7746562e-09 1.1473159e-08 0
4.7746562e-09 1.1473159e-08 0
0 -4.7746509e-09 0
-1.6166421e-08 -4.7746509e-09 0
-7.5887342e-06 3.2346334e-09 0
-0.00010141789 2.5291436e-06 0
-9.6534808e-05 4.6489563e-06 0
-0.00019017872 8.3722935e-06 0