<?xml version="1.0" ?>

<VTKFile type="UnstructuredGrid" version="0.1" byte_order="BigEndian">

<UnstructuredGrid>

<Piece NumberOfPoints= " 2009 " NumberOfCells=" 2009 ">

<PointData Scalars="Pressure" Vectors="Velocity">

<DataArray type="Float32" Name="Pressure" format="ascii">

12.9825 17.9182 20.4935 9.22708 12.7679 8.04684 6.86661 6.86661 8.7979 8.7979 6.86661 6.86661 6.86661 6.97391 6.86661 6.86661 6.86661 6.86661 6.86661 7.93955 6.86661 6.86661 8.7979 8.7979 6.86661 6.86661 8.04684 6.86661 6.86661 8.7979 8.7979 6.86661 6.86661 8.7979 8.7979 6.97391 18.8839 12.5533 14.27 12.7679 19.6351 20.2789 19.0985 17.0598 15.343 14.8065 4.82805 8.26143 8.26143 5.90098 5.90098 8.26143 8.15414 8.15414 7.93955 8.15414 8.15414 8.15414 8.15414 8.26143 4.82805 8.26143 8.26143 6.00827 6.00827 8.26143 8.26143 4.82805 8.26143 8.26143 6.00827 6.00827 8.26143 8.26143 6.00827 6.00827 8.26143 13.8408 12.2314 12.9825 13.197 13.8408 20.4935 17.2744 18.0255 15.6649 14.27 7.93955 7.18849 7.18849 9.01249 9.01249 7.18849 7.18849 7.18849 6.00827 7.18849 7.18849 7.18849 7.18849 7.18849 7.61767 7.18849 7.18849 9.01249 9.01249 7.18849 7.18849 7.61767 7.18849 7.18849 9.01249 9.01249 7.18849 7.18849 9.01249 9.01249 7.18849 12.446 15.4503 14.4846 12.5533 18.9912 10.6219 7.83225 6.33015 3.11139 8.58331 2.89681 2.36036 2.36036 2.89681 2.78952 2.36036 2.36036 2.36036 2.36036 2.36036 2.36036 2.36036 2.36036 2.36036 2.78952 2.36036 2.36036 2.78952 2.78952 2.36036 2.36036 2.78952 2.36036 2.36036 2.78952 2.78952 2.36036 2.36036 2.78952 2.78952 2.36036 9.33438 6.43744 12.446 13.5189 12.3387 12.6606 7.51037 5.90098 6.75932 11.373 0 5.47181 5.47181 0 0 5.47181 5.47181 5.47181 1.82391 5.47181 5.47181 5.47181 5.47181 5.47181 0 5.47181 5.47181 0 0 5.47181 5.47181 0 5.47181 5.47181 0 0 5.47181 5.47181 0 0 5.47181 17.9182 4.39889 13.5189 14.0554 16.0941 12.1241 15.4503 15.4503 5.47181 1.60933 0 0 0 0 0 0 0 0 5.14993 0 0 0 0 0 0 0 0 0 0 0 0 0 0 0 0 0 0 0 0 0 0 0 2.89681 9.01249 5.90098 9.01249 12.446 12.5533 11.1584 3.32598 10.3 0 0 0 0 0 0 0 0 0 0 0 0 0 0 0 0 0 0 0 0 0 0 0 0 0 0 0 0 0 0 0 5.47181 2.36036 7.18849 8.26143 6.86661 6.86661 8.26143 7.18849 2.36036 5.47181 0 0 0 0 0 0 0 0 0 0 0 0 0 0 0 0 0 0 0 0 0 0 0 0 0 0 0 0 0 0 0 5.47181 2.36036 7.18849 8.26143 6.86661 8.7979 5.90098 9.01249 2.89681 0 0 0 0 0 0 0 0 0 0 0 0 0 0 0 0 0 0 0 0 0 0 0 0 0 0 0 0 0 0 0 0 0 2.89681 9.01249 5.90098 8.7979 8.7979 5.90098 9.01249 2.89681 0 0 0 0 0 0 0 0 0 0 0 0 0 0 0 0 0 0 0 0 0 0 0 0 0 0 0 0 0 0 0 0 0 2.78952 9.01249 5.90098 8.7979 6.86661 8.26143 7.18849 2.36036 5.47181 0 0 0 0 0 0 0 0 0 0 0 0 0 0 0 0 0 0 0 0 0 0 0 0 0 0 0 0 0 0 0 5.47181 2.36036 7.18849 8.26143 6.86661 6.86661 8.15414 7.18849 2.36036 5.47181 0 0 0 0 0 0 0 0 0 0 0 0 0 0 0 0 0 0 0 0 0 0 0 0 0 0 0 0 0 0 0 5.47181 2.36036 7.18849 8.15414 6.86661 6.86661 8.15414 7.18849 2.36036 5.47181 0 0 0 0 0 0 0 0 0 0 0 0 0 0 0 0 0 0 0 0 0 0 0 0 0 0 0 0 0 0 0 5.47181 2.36036 7.18849 8.15414 6.86661 6.97391 7.93955 6.00827 2.36036 1.82391 5.14993 0 0 0 0 0 0 0 0 0 0 0 0 0 0 0 0 0 0 0 0 0 0 0 0 0 0 0 0 0 5.14993 1.82391 2.36036 6.00827 7.93955 6.97391 6.86661 8.15414 7.18849 2.36036 5.47181 0 0 0 0 0 0 0 0 0 0 0 0 0 0 0 0 0 0 0 0 0 0 0 0 0 0 0 0 0 0 0 5.47181 2.36036 7.18849 8.15414 6.86661 6.86661 8.15414 7.18849 2.36036 5.47181 0 0 0 0 0 0 0 0 0 0 0 0 0 0 0 0 0 0 0 0 0 0 0 0 0 0 0 0 0 0 0 5.47181 2.36036 7.18849 8.15414 6.86661 6.86661 8.15414 7.18849 2.36036 5.47181 0 0 0 0 0 0 0 0 0 0 0 0 0 0 0 0 0 0 0 0 0 0 0 0 0 0 0 0 0 0 0 5.47181 2.36036 7.18849 8.15414 6.86661 6.86661 8.15414 7.18849 2.36036 5.47181 0 0 0 0 0 0 0 0 0 0 0 0 0 0 0 0 0 0 0 0 0 0 0 0 0 0 0 0 0 0 0 5.47181 2.36036 7.18849 8.15414 6.86661 6.86661 8.26143 7.18849 2.36036 5.47181 0 0 0 0 0 0 0 0 0 0 0 0 0 0 0 0 0 0 0 0 0 0 0 0 0 0 0 0 0 0 0 5.47181 2.36036 7.18849 8.26143 6.86661 7.93955 4.82805 7.61767 2.78952 0 0 0 0 0 0 0 0 0 0 0 0 0 0 0 0 0 0 0 0 0 0 0 0 0 0 0 0 0 0 0 0 0 2.78952 7.61767 4.82805 7.93955 6.86661 8.26143 7.18849 2.36036 5.47181 0 0 0 0 0 0 0 0 0 0 0 0 0 0 0 0 0 0 0 0 0 0 0 0 0 0 0 0 0 0 0 5.47181 2.36036 7.18849 8.26143 6.86661 6.86661 8.26143 7.18849 2.36036 5.47181 0 0 0 0 0 0 0 0 0 0 0 0 0 0 0 0 0 0 0 0 0 0 0 0 0 0 0 0 0 0 0 5.47181 2.36036 7.18849 8.26143 6.86661 8.7979 6.00827 9.01249 2.78952 0 0 0 0 0 0 0 0 0 0 0 0 0 0 0 0 0 0 0 0 0 0 0 0 0 0 0 0 0 0 0 0 0 2.78952 9.01249 6.00827 8.7979 8.7979 6.00827 9.01249 2.78952 0 0 0 0 0 0 0 0 0 0 0 0 0 0 0 0 0 0 0 0 0 0 0 0 0 0 0 0 0 0 0 0 0 2.78952 9.01249 6.00827 8.7979 6.86661 8.26143 7.18849 2.36036 5.47181 0 0 0 0 0 0 0 0 0 0 0 0 0 0 0 0 0 0 0 0 0 0 0 0 0 0 0 0 0 0 0 5.47181 2.36036 7.18849 8.26143 6.86661 6.86661 8.26143 7.18849 2.36036 5.47181 0 0 0 0 0 0 0 0 0 0 0 0 0 0 0 0 0 0 0 0 0 0 0 0 0 0 0 0 0 0 0 5.47181 2.36036 7.18849 8.26143 6.86661 8.04684 4.82805 7.61767 2.78952 0 0 0 0 0 0 0 0 0 0 0 0 0 0 0 0 0 0 0 0 0 0 0 0 0 0 0 0 0 0 0 0 0 2.78952 7.61767 4.82805 8.04684 6.86661 8.26143 7.18849 2.36036 5.47181 0 0 0 0 0 0 0 0 0 0 0 0 0 0 0 0 0 0 0 0 0 0 0 0 0 0 0 0 0 0 0 5.47181 2.36036 7.18849 8.26143 6.86661 6.86661 8.26143 7.18849 2.36036 5.47181 0 0 0 0 0 0 0 0 0 0 0 0 0 0 0 0 0 0 0 0 0 0 0 0 0 0 0 0 0 0 0 5.47181 2.36036 7.18849 8.26143 6.86661 8.7979 6.00827 9.01249 2.78952 0 0 0 0 0 0 0 0 0 0 0 0 0 0 0 0 0 0 0 0 0 0 0 0 0 0 0 0 0 0 0 0 0 2.78952 9.01249 6.00827 8.7979 8.7979 6.00827 9.01249 2.78952 0 0 0 0 0 0 0 0 0 0 0 0 0 0 0 0 0 0 0 0 0 0 0 0 0 0 0 0 0 0 0 0 0 2.78952 9.01249 6.00827 8.7979 6.86661 8.26143 7.18849 2.36036 5.47181 0 0 0 0 0 0 0 0 0 0 0 0 0 0 0 0 0 0 0 0 0 0 0 0 0 0 0 0 0 0 0 5.47181 2.36036 7.18849 8.26143 6.86661 6.86661 8.26143 7.18849 2.36036 5.47181 0 0 0 0 0 0 0 0 0 0 0 0 0 0 0 0 0 0 0 0 0 0 0 0 0 0 0 0 0 0 0 5.47181 2.36036 7.18849 8.26143 6.86661 8.7979 6.00827 9.01249 2.78952 0 0 0 0 0 0 0 0 0 0 0 0 0 0 0 0 0 0 0 0 0 0 0 0 0 0 0 0 0 0 0 0 0 2.78952 8.9052 6.00827 8.7979 8.7979 6.00827 9.01249 2.78952 0 0 0 0 0 0 0 0 0 0 0 0 0 0 0 0 0 0 0 0 0 0 0 0 0 0 0 0 0 0 0 0 0 2.78952 8.9052 6.00827 8.7979 6.97391 8.26143 7.18849 2.36036 5.47181 0 0 0 0 0 0 0 0 5.14993 0 0 0 0 0 0 0 0 0 0 0 0 0 0 0 0 0 0 0 0 0 0 5.47181 2.36036 7.18849 8.26143 6.97391 18.8839 13.8408 12.446 9.33438 17.9182 0 5.47181 5.47181 0 0 5.47181 5.47181 5.47181 1.82391 5.47181 5.47181 5.47181 5.47181 5.47181 0 5.47181 5.47181 0 0 5.47181 5.47181 0 5.47181 5.47181 0 0 5.47181 5.47181 0 0 5.47181 17.5963 5.14993 13.4116 14.1627 16.7379 12.5533 12.2314 15.4503 6.43744 4.39889 2.89681 2.36036 2.36036 2.89681 2.78952 2.36036 2.36036 2.36036 2.36036 2.36036 2.36036 2.36036 2.36036 2.36036 2.78952 2.36036 2.36036 2.78952 2.78952 2.36036 2.36036 2.78952 2.36036 2.36036 2.78952 2.78952 2.36036 2.36036 2.78952 2.78952 2.36036 5.14993 6.43744 14.3773 11.4803 12.446 14.27 12.9825 14.4846 12.446 13.5189 9.01249 7.18849 7.18849 9.01249 9.01249 7.18849 7.18849 7.18849 6.00827 7.18849 7.18849 7.18849 7.18849 7.18849 7.61767 7.18849 7.18849 9.01249 9.01249 7.18849 7.18849 7.61767 7.18849 7.18849 9.01249 9.01249 7.18849 7.18849 8.9052 8.9052 7.18849 13.4116 14.3773 14.8065 12.8752 15.2357 12.7679 13.197 12.5533 13.5189 14.0554 5.90098 8.26143 8.26143 5.90098 5.90098 8.26143 8.15414 8.15414 7.93955 8.15414 8.15414 8.15414 8.15414 8.26143 4.82805 8.26143 8.26143 6.00827 6.00827 8.26143 8.26143 4.82805 8.26143 8.26143 6.00827 6.00827 8.26143 8.26143 6.00827 6.00827 8.26143 14.1627 11.4803 12.8752 13.197 13.5189 19.6351 13.8408 18.9912 12.3387 16.0941 9.01249 6.86661 6.86661 8.7979 8.7979 6.86661 6.86661 6.86661 6.97391 6.86661 6.86661 6.86661 6.86661 6.86661 7.93955 6.86661 6.86661 8.7979 8.7979 6.86661 6.86661 8.04684 6.86661 6.86661 8.7979 8.7979 6.86661 6.86661 8.7979 8.7979 6.97391 16.7379 12.446 15.2357 13.5189 19.2058 0.1 0.1 0.1 0.1 0.1 0.1 0.1 0.1 0.1 0.1 0.1 0.1 0.1 0.1 0.1 0.1 0.1 0.1 0.1 0.1 0.1 0.1 0.1 0.1 0.1 0.1 0.1 0.1 0.1 0.1 0.1 0.1 0.1 0.1 0.1 0.1 0.1 0.1 0.1 0.1 0.1 0.1 0.1 0.1 0.1 0.1 0.1 0.1 0.1 0.1 0.1 0.1 0.1 0.1 0.1 0.1 0.1 0.1 0.1 0.1 0.1 0.1 0.1 0.1 0.1 0.1 0.1 0.1 0.1 0.1 0.1 0.1 0.1 0.1 0.1 0.1 0.1 0.1 0.1 0.1 0.1 0.1 0.1 0.1 0.1 0.1 0.1 0.1 0.1 0.1 0.1 0.1 0.1 0.1 0.1 0.1 0.1 0.1 0.1 0.1 0.1 0.1 0.1 0.1 0.1 0.1 0.1 0.1 0.1 0.1 0.1 0.1 0.1 0.1 0.1 0.1 0.1 0.1 0.1 0.1 0.1 0.1 0.1 0.1 0.1 0.1 0.1 0.1 0.1 0.1 0.1 0.1 0.1 0.1 0.1 0.1 0.1 0.1 0.1 0.1 0.1 0.1 0.1 0.1 0.1 0.1 0.1 0.1 0.1 0.1 0.1 0.1 0.1 0.1 0.1 0.1 0.1 0.1 0.1 0.1 0.1 0.1 0.1 0.1 0.1 0.1 0.1 0.1 0.1 0.1 0.1 0.1 0.1 0.1 0.1 0.1 0.1 0.1 0.1 0.1 0.1 0.1 0.1 0.1 0.1 0.1 0.1 0.1 0.1 0.1 0.1 0.1 0.1 0.1 0.1 0.1 0.1 0.1 0.1 0.1 0.1 0.1 0.1 0.1 0.1 0.1 0.1 0.1 0.1 0.1 0.1 0.1 0.1 0.1 0.1 0.1 0.1 0.1 0.1 0.1 0.1 0.1 0.1 0.1 0.1 0.1 0.1 0.1 0.1 0.1 0.1 0.1 0.1 0.1 0.1 0.1 0.1 0.1 0.1 0.1 0.1 0.1 0.1 0.1 0.1 0.1 0.1 0.1 0.1 0.1 0.1 0.1 0.1 0.1 0.1 0.1 0.1 0.1 0.1 0.1 0.1 0.1 0.1 0.1 0.1 0.1 0.1 0.1 0.1 0.1 0.1 0.1 0.1 0.1 0.1 0.1 0.1 0.1 0.1 0.1 0.1 0.1 0.1 0.1 0.1 0.1 0.1 0.1 0.1 0.1 0.1 0.1 0.1 0.1 0.1 0.1 0.1 0.1 0.1 0.1 0.1 0.1 0.1 0.1 0.1 0.1 0.1 0.1 0.1 0.1 0.1 0.1 0.1 0.1 0.1 0.1 0.1 0.1 0.1 0.1 0.1 0.1 0.1 0.1 0.1 0.1 0.1 0.1 
</DataArray>

<DataArray type="Float32" Name="Density" format="ascii">
1000.01 1000.02 1000.02 1000.01 1000.01 1000.01 1000.01 1000.01 1000.01 1000.01 1000.01 1000.01 1000.01 1000.01 1000.01 1000.01 1000.01 1000.01 1000.01 1000.01 1000.01 1000.01 1000.01 1000.01 1000.01 1000.01 1000.01 1000.01 1000.01 1000.01 1000.01 1000.01 1000.01 1000.01 1000.01 1000.01 1000.02 1000.01 1000.02 1000.01 1000.02 1000.02 1000.02 1000.02 1000.02 1000.02 1000.01 1000.01 1000.01 1000.01 1000.01 1000.01 1000.01 1000.01 1000.01 1000.01 1000.01 1000.01 1000.01 1000.01 1000.01 1000.01 1000.01 1000.01 1000.01 1000.01 1000.01 1000.01 1000.01 1000.01 1000.01 1000.01 1000.01 1000.01 1000.01 1000.01 1000.01 1000.02 1000.01 1000.01 1000.01 1000.02 1000.02 1000.02 1000.02 1000.02 1000.02 1000.01 1000.01 1000.01 1000.01 1000.01 1000.01 1000.01 1000.01 1000.01 1000.01 1000.01 1000.01 1000.01 1000.01 1000.01 1000.01 1000.01 1000.01 1000.01 1000.01 1000.01 1000.01 1000.01 1000.01 1000.01 1000.01 1000.01 1000.01 1000.01 1000.01 1000.01 1000.01 1000.02 1000.02 1000.01 1000.02 1000.01 1000.01 1000.01 1000 1000.01 1000 1000 1000 1000 1000 1000 1000 1000 1000 1000 1000 1000 1000 1000 1000 1000 1000 1000 1000 1000 1000 1000 1000 1000 1000 1000 1000 1000 1000 1000 1000 1000.01 1000.01 1000.01 1000.02 1000.01 1000.01 1000.01 1000.01 1000.01 1000.01 1000 1000.01 1000.01 1000 1000 1000.01 1000.01 1000.01 1000 1000.01 1000.01 1000.01 1000.01 1000.01 1000 1000.01 1000.01 1000 1000 1000.01 1000.01 1000 1000.01 1000.01 1000 1000 1000.01 1000.01 1000 1000 1000.01 1000.02 1000 1000.02 1000.02 1000.02 1000.01 1000.02 1000.02 1000.01 1000 1000 1000 1000 1000 1000 1000 1000 1000 1000.01 1000 1000 1000 1000 1000 1000 1000 1000 1000 1000 1000 1000 1000 1000 1000 1000 1000 1000 1000 1000 1000 1000 1000 1000 1000.01 1000.01 1000.01 1000.01 1000.01 1000.01 1000 1000.01 1000 1000 1000 1000 1000 1000 1000 1000 1000 1000 1000 1000 1000 1000 1000 1000 1000 1000 1000 1000 1000 1000 1000 1000 1000 1000 1000 1000 1000 1000 1000 1000.01 1000 1000.01 1000.01 1000.01 1000.01 1000.01 1000.01 1000 1000.01 1000 1000 1000 1000 1000 1000 1000 1000 1000 1000 1000 1000 1000 1000 1000 1000 1000 1000 1000 1000 1000 1000 1000 1000 1000 1000 1000 1000 1000 1000 1000 1000.01 1000 1000.01 1000.01 1000.01 1000.01 1000.01 1000.01 1000 1000 1000 1000 1000 1000 1000 1000 1000 1000 1000 1000 1000 1000 1000 1000 1000 1000 1000 1000 1000 1000 1000 1000 1000 1000 1000 1000 1000 1000 1000 1000 1000 1000 1000 1000.01 1000.01 1000.01 1000.01 1000.01 1000.01 1000 1000 1000 1000 1000 1000 1000 1000 1000 1000 1000 1000 1000 1000 1000 1000 1000 1000 1000 1000 1000 1000 1000 1000 1000 1000 1000 1000 1000 1000 1000 1000 1000 1000 1000 1000.01 1000.01 1000.01 1000.01 1000.01 1000.01 1000 1000.01 1000 1000 1000 1000 1000 1000 1000 1000 1000 1000 1000 1000 1000 1000 1000 1000 1000 1000 1000 1000 1000 1000 1000 1000 1000 1000 1000 1000 1000 1000 1000 1000.01 1000 1000.01 1000.01 1000.01 1000.01 1000.01 1000.01 1000 1000.01 1000 1000 1000 1000 1000 1000 1000 1000 1000 1000 1000 1000 1000 1000 1000 1000 1000 1000 1000 1000 1000 1000 1000 1000 1000 1000 1000 1000 1000 1000 1000 1000.01 1000 1000.01 1000.01 1000.01 1000.01 1000.01 1000.01 1000 1000.01 1000 1000 1000 1000 1000 1000 1000 1000 1000 1000 1000 1000 1000 1000 1000 1000 1000 1000 1000 1000 1000 1000 1000 1000 1000 1000 1000 1000 1000 1000 1000 1000.01 1000 1000.01 1000.01 1000.01 1000.01 1000.01 1000.01 1000 1000 1000.01 1000 1000 1000 1000 1000 1000 1000 1000 1000 1000 1000 1000 1000 1000 1000 1000 1000 1000 1000 1000 1000 1000 1000 1000 1000 1000 1000 1000 1000 1000.01 1000 1000 1000.01 1000.01 1000.01 1000.01 1000.01 1000.01 1000 1000.01 1000 1000 1000 1000 1000 1000 1000 1000 1000 1000 1000 1000 1000 1000 1000 1000 1000 1000 1000 1000 1000 1000 1000 1000 1000 1000 1000 1000 1000 1000 1000 1000.01 1000 1000.01 1000.01 1000.01 1000.01 1000.01 1000.01 1000 1000.01 1000 1000 1000 1000 1000 1000 1000 1000 1000 1000 1000 1000 1000 1000 1000 1000 1000 1000 1000 1000 1000 1000 1000 1000 1000 1000 1000 1000 1000 1000 1000 1000.01 1000 1000.01 1000.01 1000.01 1000.01 1000.01 1000.01 1000 1000.01 1000 1000 1000 1000 1000 1000 1000 1000 1000 1000 1000 1000 1000 1000 1000 1000 1000 1000 1000 1000 1000 1000 1000 1000 1000 1000 1000 1000 1000 1000 1000 1000.01 1000 1000.01 1000.01 1000.01 1000.01 1000.01 1000.01 1000 1000.01 1000 1000 1000 1000 1000 1000 1000 1000 1000 1000 1000 1000 1000 1000 1000 1000 1000 1000 1000 1000 1000 1000 1000 1000 1000 1000 1000 1000 1000 1000 1000 1000.01 1000 1000.01 1000.01 1000.01 1000.01 1000.01 1000.01 1000 1000.01 1000 1000 1000 1000 1000 1000 1000 1000 1000 1000 1000 1000 1000 1000 1000 1000 1000 1000 1000 1000 1000 1000 1000 1000 1000 1000 1000 1000 1000 1000 1000 1000.01 1000 1000.01 1000.01 1000.01 1000.01 1000.01 1000.01 1000 1000 1000 1000 1000 1000 1000 1000 1000 1000 1000 1000 1000 1000 1000 1000 1000 1000 1000 1000 1000 1000 1000 1000 1000 1000 1000 1000 1000 1000 1000 1000 1000 1000 1000 1000.01 1000.01 1000.01 1000.01 1000.01 1000.01 1000 1000.01 1000 1000 1000 1000 1000 1000 1000 1000 1000 1000 1000 1000 1000 1000 1000 1000 1000 1000 1000 1000 1000 1000 1000 1000 1000 1000 1000 1000 1000 1000 1000 1000.01 1000 1000.01 1000.01 1000.01 1000.01 1000.01 1000.01 1000 1000.01 1000 1000 1000 1000 1000 1000 1000 1000 1000 1000 1000 1000 1000 1000 1000 1000 1000 1000 1000 1000 1000 1000 1000 1000 1000 1000 1000 1000 1000 1000 1000 1000.01 1000 1000.01 1000.01 1000.01 1000.01 1000.01 1000.01 1000 1000 1000 1000 1000 1000 1000 1000 1000 1000 1000 1000 1000 1000 1000 1000 1000 1000 1000 1000 1000 1000 1000 1000 1000 1000 1000 1000 1000 1000 1000 1000 1000 1000 1000 1000.01 1000.01 1000.01 1000.01 1000.01 1000.01 1000 1000 1000 1000 1000 1000 1000 1000 1000 1000 1000 1000 1000 1000 1000 1000 1000 1000 1000 1000 1000 1000 1000 1000 1000 1000 1000 1000 1000 1000 1000 1000 1000 1000 1000 1000.01 1000.01 1000.01 1000.01 1000.01 1000.01 1000 1000.01 1000 1000 1000 1000 1000 1000 1000 1000 1000 1000 1000 1000 1000 1000 1000 1000 1000 1000 1000 1000 1000 1000 1000 1000 1000 1000 1000 1000 1000 1000 1000 1000.01 1000 1000.01 1000.01 1000.01 1000.01 1000.01 1000.01 1000 1000.01 1000 1000 1000 1000 1000 1000 1000 1000 1000 1000 1000 1000 1000 1000 1000 1000 1000 1000 1000 1000 1000 1000 1000 1000 1000 1000 1000 1000 1000 1000 1000 1000.01 1000 1000.01 1000.01 1000.01 1000.01 1000.01 1000.01 1000 1000 1000 1000 1000 1000 1000 1000 1000 1000 1000 1000 1000 1000 1000 1000 1000 1000 1000 1000 1000 1000 1000 1000 1000 1000 1000 1000 1000 1000 1000 1000 1000 1000 1000 1000.01 1000.01 1000.01 1000.01 1000.01 1000.01 1000 1000.01 1000 1000 1000 1000 1000 1000 1000 1000 1000 1000 1000 1000 1000 1000 1000 1000 1000 1000 1000 1000 1000 1000 1000 1000 1000 1000 1000 1000 1000 1000 1000 1000.01 1000 1000.01 1000.01 1000.01 1000.01 1000.01 1000.01 1000 1000.01 1000 1000 1000 1000 1000 1000 1000 1000 1000 1000 1000 1000 1000 1000 1000 1000 1000 1000 1000 1000 1000 1000 1000 1000 1000 1000 1000 1000 1000 1000 1000 1000.01 1000 1000.01 1000.01 1000.01 1000.01 1000.01 1000.01 1000 1000 1000 1000 1000 1000 1000 1000 1000 1000 1000 1000 1000 1000 1000 1000 1000 1000 1000 1000 1000 1000 1000 1000 1000 1000 1000 1000 1000 1000 1000 1000 1000 1000 1000 1000.01 1000.01 1000.01 1000.01 1000.01 1000.01 1000 1000 1000 1000 1000 1000 1000 1000 1000 1000 1000 1000 1000 1000 1000 1000 1000 1000 1000 1000 1000 1000 1000 1000 1000 1000 1000 1000 1000 1000 1000 1000 1000 1000 1000 1000.01 1000.01 1000.01 1000.01 1000.01 1000.01 1000 1000.01 1000 1000 1000 1000 1000 1000 1000 1000 1000 1000 1000 1000 1000 1000 1000 1000 1000 1000 1000 1000 1000 1000 1000 1000 1000 1000 1000 1000 1000 1000 1000 1000.01 1000 1000.01 1000.01 1000.01 1000.01 1000.01 1000.01 1000 1000.01 1000 1000 1000 1000 1000 1000 1000 1000 1000 1000 1000 1000 1000 1000 1000 1000 1000 1000 1000 1000 1000 1000 1000 1000 1000 1000 1000 1000 1000 1000 1000 1000.01 1000 1000.01 1000.01 1000.01 1000.01 1000.01 1000.01 1000 1000 1000 1000 1000 1000 1000 1000 1000 1000 1000 1000 1000 1000 1000 1000 1000 1000 1000 1000 1000 1000 1000 1000 1000 1000 1000 1000 1000 1000 1000 1000 1000 1000 1000 1000.01 1000.01 1000.01 1000.01 1000.01 1000.01 1000 1000 1000 1000 1000 1000 1000 1000 1000 1000 1000 1000 1000 1000 1000 1000 1000 1000 1000 1000 1000 1000 1000 1000 1000 1000 1000 1000 1000 1000 1000 1000 1000 1000 1000 1000.01 1000.01 1000.01 1000.01 1000.01 1000.01 1000 1000.01 1000 1000 1000 1000 1000 1000 1000 1000 1000.01 1000 1000 1000 1000 1000 1000 1000 1000 1000 1000 1000 1000 1000 1000 1000 1000 1000 1000 1000 1000 1000 1000 1000.01 1000 1000.01 1000.01 1000.01 1000.02 1000.02 1000.01 1000.01 1000.02 1000 1000.01 1000.01 1000 1000 1000.01 1000.01 1000.01 1000 1000.01 1000.01 1000.01 1000.01 1000.01 1000 1000.01 1000.01 1000 1000 1000.01 1000.01 1000 1000.01 1000.01 1000 1000 1000.01 1000.01 1000 1000 1000.01 1000.02 1000.01 1000.01 1000.02 1000.02 1000.01 1000.01 1000.02 1000.01 1000 1000 1000 1000 1000 1000 1000 1000 1000 1000 1000 1000 1000 1000 1000 1000 1000 1000 1000 1000 1000 1000 1000 1000 1000 1000 1000 1000 1000 1000 1000 1000 1000.01 1000.01 1000.02 1000.01 1000.01 1000.02 1000.01 1000.02 1000.01 1000.02 1000.01 1000.01 1000.01 1000.01 1000.01 1000.01 1000.01 1000.01 1000.01 1000.01 1000.01 1000.01 1000.01 1000.01 1000.01 1000.01 1000.01 1000.01 1000.01 1000.01 1000.01 1000.01 1000.01 1000.01 1000.01 1000.01 1000.01 1000.01 1000.01 1000.01 1000.01 1000.01 1000.02 1000.02 1000.01 1000.02 1000.01 1000.01 1000.01 1000.02 1000.02 1000.01 1000.01 1000.01 1000.01 1000.01 1000.01 1000.01 1000.01 1000.01 1000.01 1000.01 1000.01 1000.01 1000.01 1000.01 1000.01 1000.01 1000.01 1000.01 1000.01 1000.01 1000.01 1000.01 1000.01 1000.01 1000.01 1000.01 1000.01 1000.01 1000.01 1000.01 1000.02 1000.01 1000.01 1000.01 1000.02 1000.02 1000.02 1000.02 1000.01 1000.02 1000.01 1000.01 1000.01 1000.01 1000.01 1000.01 1000.01 1000.01 1000.01 1000.01 1000.01 1000.01 1000.01 1000.01 1000.01 1000.01 1000.01 1000.01 1000.01 1000.01 1000.01 1000.01 1000.01 1000.01 1000.01 1000.01 1000.01 1000.01 1000.01 1000.01 1000.01 1000.02 1000.01 1000.02 1000.02 1000.02 1000 1000 1000 1000 1000 1000 1000 1000 1000 1000 1000 1000 1000 1000 1000 1000 1000 1000 1000 1000 1000 1000 1000 1000 1000 1000 1000 1000 1000 1000 1000 1000 1000 1000 1000 1000 1000 1000 1000 1000 1000 1000 1000 1000 1000 1000 1000 1000 1000 1000 1000 1000 1000 1000 1000 1000 1000 1000 1000 1000 1000 1000 1000 1000 1000 1000 1000 1000 1000 1000 1000 1000 1000 1000 1000 1000 1000 1000 1000 1000 1000 1000 1000 1000 1000 1000 1000 1000 1000 1000 1000 1000 1000 1000 1000 1000 1000 1000 1000 1000 1000 1000 1000 1000 1000 1000 1000 1000 1000 1000 1000 1000 1000 1000 1000 1000 1000 1000 1000 1000 1000 1000 1000 1000 1000 1000 1000 1000 1000 1000 1000 1000 1000 1000 1000 1000 1000 1000 1000 1000 1000 1000 1000 1000 1000 1000 1000 1000 1000 1000 1000 1000 1000 1000 1000 1000 1000 1000 1000 1000 1000 1000 1000 1000 1000 1000 1000 1000 1000 1000 1000 1000 1000 1000 1000 1000 1000 1000 1000 1000 1000 1000 1000 1000 1000 1000 1000 1000 1000 1000 1000 1000 1000 1000 1000 1000 1000 1000 1000 1000 1000 1000 1000 1000 1000 1000 1000 1000 1000 1000 1000 1000 1000 1000 1000 1000 1000 1000 1000 1000 1000 1000 1000 1000 1000 1000 1000 1000 1000 1000 1000 1000 1000 1000 1000 1000 1000 1000 1000 1000 1000 1000 1000 1000 1000 1000 1000 1000 1000 1000 1000 1000 1000 1000 1000 1000 1000 1000 1000 1000 1000 1000 1000 1000 1000 1000 1000 1000 1000 1000 1000 1000 1000 1000 1000 1000 1000 1000 1000 1000 1000 1000 1000 1000 1000 1000 1000 1000 1000 1000 1000 1000 1000 1000 1000 1000 1000 1000 1000 1000 1000 1000 1000 1000 1000 1000 1000 1000 1000 1000 1000 1000 1000 1000 1000 1000 1000 1000 1000 1000 1000 1000 1000 1000 1000 1000 1000 1000 
</DataArray>
<DataArray type="Float32" Name="Velocity" NumberOfComponents="3" format="ascii">
0.0043059718 0.0060763955 0
0.00032546048 0.0057917144 0
-5.6120643e-05 0.0054855966 0
8.4843145e-05 0.0048145661 0
6.8416179e-05 0.0040925005 0
1.6467886e-05 0.0029221175 0
3.1173181e-07 0.0041140397 0
9.2758853e-07 0.0041140374 0
5.0462222e-07 0.0029321963 0
3.2931594e-06 0.0029306833 0
-9.3157536e-07 0.0041140378 0
1.022367e-07 0.0041140383 0
3.5134849e-07 0.0041140346 0
2.7219105e-10 0.0050202156 0
-4.3032688e-07 0.0041140369 0
1.1700669e-07 0.0041140383 0
5.9805677e-07 0.0041140383 0
-7.0853002e-07 0.004114043 0
1.2142948e-06 0.0041140383 0
6.4568133e-07 0.0029215352 0
9.1938162e-08 0.0041140378 0
4.5459842e-07 0.004114042 0
-7.4216933e-07 0.0029227943 0
5.9237959e-07 0.0029227943 0
-5.4080425e-07 0.0041140383 0
1.0148001e-07 0.0041140374 0
4.5133676e-15 0.0029215815 0
-1.0148001e-07 0.0041140374 0
5.4080425e-07 0.0041140383 0
-5.9191206e-07 0.0029227943 0
1.363362e-07 0.0029227957 0
-6.0169117e-07 0.0041140392 0
6.0410207e-07 0.0041140392 0
-3.9636029e-06 0.0029228667 0
-7.3731678e-07 0.0029227934 0
-2.4472209e-05 0.0041140253 0
-0.000141393 0.004059657 0
-0.00012933172 0.0029559128 0
-0.00087698974 0.004124708 0
-0.00030874158 0.0039037005 0
-0.0045488453 0.0043683583 0
0.0041165343 0.001106219 0
0.00081642793 0.0011500878 0
0.00023195584 0.00079481018 0
0.00019115412 0.00082266959 0
0.00015978997 0.0010782829 0
-2.5451178e-07 0.00081786292 0
1.0265023e-06 0.0011226449 0
1.6873043e-06 0.0011228259 0
-8.4025834e-07 0.0009931263 0
2.193471e-07 0.00099292421 0
-2.8971988e-07 0.0011228102 0
-3.6057401e-08 0.0011229446 0
2.2861234e-06 0.0011229417 0
-6.3091545e-07 0.0014181046 0
-6.5808842e-07 0.0011229436 0
-1.687101e-06 0.0011229446 0
9.2198938e-08 0.0011229446 0
-1.9670608e-07 0.0011229459 0
5.0704813e-07 0.0011228117 0
-8.7209457e-09 0.00081828621 0
-2.1237856e-06 0.0011228125 0
2.0276004e-06 0.001122815 0
-9.5583414e-07 0.00099297392 0
9.3876122e-07 0.00099297403 0
-2.067248e-06 0.0011228143 0
2.0856257e-06 0.0011228113 0
6.1845636e-15 0.00081820082 0
-2.0856257e-06 0.0011228113 0
2.067248e-06 0.0011228143 0
-9.3804846e-07 0.00099297403 0
9.9600447e-07 0.00099297136 0
-2.065766e-06 0.00112282 0
1.7554197e-06 0.0011227921 0
-8.6120178e-07 0.0009928951 0
1.1238831e-06 0.00099296402 0
-2.2195085e-05 0.0011223098 0
-0.00014205668 0.0011091218 0
-0.00021922174 0.00075448479 0
-0.00039398228 0.00057799707 0
-0.00072972605 0.00073414075 0
-0.0038222729 0.00024257101 0
0.0037370683 0.00054790592 0
0.00063682935 0.00046761293 0
0.00054613623 0.00026115336 0
0.00031987418 0.00013788248 0
0.00013738209 0.00016897978 0
1.9140243e-05 0.00015272507 0
8.4418189e-06 0.00017747405 0
4.69731e-06 0.0001771707 0
1.420911e-06 0.00016386452 0
-4.922781e-07 0.00016395205 0
9.0975374e-07 0.00017713547 0
3.0754054e-06 0.00017662271 0
4.0246532e-06 0.00017651392 0
2.6610373e-06 0.0001443411 0
2.2528127e-06 0.00017657384 0
2.1067297e-07 0.00017662311 0
-1.4846963e-06 0.00017662307 0
2.3624361e-06 0.00017662323 0
4.6302222e-07 0.00017676402 0
-2.6173784e-06 0.00015318803 0
2.6658213e-07 0.00017683751 0
-9.0738371e-07 0.00017682236 0
6.926104e-07 0.00016413587 0
2.0348435e-07 0.00016414677 0
2.4720916e-07 0.00017681146 0
2.0041844e-06 0.00017675487 0
-1.9718671e-15 0.0001532835 0
-2.0041844e-06 0.00017675487 0
-2.4720916e-07 0.00017681146 0
-4.2028214e-06 0.00016414684 0
-4.8293214e-06 0.00016394124 0
-6.4908704e-06 0.00017701247 0
-3.4123724e-07 0.00017721401 0
-4.8562188e-06 0.00016372791 0
-1.8588989e-06 0.00016361184 0
-1.0275039e-05 0.00017788293 0
-0.00012034232 0.00018046473 0
-0.00032568671 0.00016966504 0
-0.00036761997 0.00037154235 0
-0.00053593831 0.00047223916 0
-0.0039893705 0.0007759984 0
0.0041568833 0.00029004129 0
0.00092886545 0.00024791816 0
0.00040092072 0.00016756369 0
0.00010428829 9.2642425e-05 0
8.7385459e-05 8.3104809e-05 0
7.0274073e-06 4.1906114e-05 0
3.3340564e-06 9.559701e-05 0
3.1539466e-06 9.5521602e-05 0
9.6084364e-07 4.4365024e-05 0
1.1158326e-06 4.4372024e-05 0
1.9177538e-08 9.5470859e-05 0
-9.2594121e-07 9.5469557e-05 0
-1.1276897e-07 9.5449759e-05 0
-5.8816704e-07 0.00010852292 0
-3.328835e-07 9.5442738e-05 0
-4.3149115e-07 9.5469579e-05 0
1.281735e-06 9.5469586e-05 0
2.0199327e-07 9.5468684e-05 0
5.1339134e-07 9.5467243e-05 0
6.4149339e-07 4.1968553e-05 0
4.5590235e-07 9.5473537e-05 0
3.9796953e-07 9.5470779e-05 0
-1.4347477e-06 4.4218261e-05 0
1.4329258e-06 4.4218355e-05 0
-4.0301279e-07 9.5470692e-05 0
2.2735598e-08 9.547059e-05 0
-2.7212009e-15 4.201202e-05 0
-2.2735598e-08 9.547059e-05 0
4.0301279e-07 9.5470692e-05 0
-1.4328494e-06 4.4218355e-05 0
1.4405266e-06 4.4217777e-05 0
1.4446992e-07 9.5470939e-05 0
-1.3029185e-07 9.547214e-05 0
-1.4465711e-06 4.4261513e-05 0
-9.4247689e-06 4.407794e-05 0
-1.549529e-05 9.5591131e-05 0
-0.00012049526 5.260342e-05 0
-0.00017964526 0.00014009462 0
-0.00016547853 0.00029387046 0
-0.0010191749 0.00017759869 0
-0.0041030436 0.00026090138 0
0.004172253 0.00037014877 0
0.0010244832 7.9454469e-05 0
0.00025145515 0.00010293751 0
0.00016042533 9.708244e-05 0
9.2494309e-05 6.2997336e-05 0
2.8798868e-06 1.0824605e-06 0
1.1588481e-06 5.6162447e-05 0
6.5242199e-07 5.6156692e-05 0
6.4873313e-07 1.1069665e-06 0
-6.334418e-07 1.0948204e-06 0
-4.0756348e-07 5.6155888e-05 0
-1.1716669e-07 5.615507e-05 0
1.0329709e-06 5.6154775e-05 0
1.9512841e-10 7.8255653e-05 0
-1.0389119e-06 5.6154862e-05 0
-3.1206145e-07 5.6155091e-05 0
-1.8726648e-07 5.615507e-05 0
2.1663789e-08 5.6155161e-05 0
8.8990774e-08 5.6158155e-05 0
-2.0683748e-08 1.0842458e-06 0
7.2121702e-07 5.6159501e-05 0
4.3233243e-07 5.6155597e-05 0
3.6754244e-07 1.0950469e-06 0
-3.6754244e-07 1.0950471e-06 0
-4.3254894e-07 5.6155484e-05 0
1.3163242e-07 5.6156045e-05 0
9.8054895e-16 1.0901797e-06 0
-1.3163242e-07 5.6156045e-05 0
4.3254894e-07 5.6155484e-05 0
3.6754241e-07 1.0950471e-06 0
-3.6754258e-07 1.0950461e-06 0
4.3744237e-08 5.6155506e-05 0
-4.3744237e-08 5.6155506e-05 0
3.6605687e-07 1.0950941e-06 0
-2.452115e-06 1.0881449e-06 0
-7.8460598e-06 5.6187568e-05 0
-0.00012255493 0.00015448016 0
-7.4634147e-05 7.5070122e-05 0
-0.00018213781 0.00011256519 0
-0.001096144 0.00015117202 0
-0.0040331166 0.00019505658 0
0.0030879821 0.00015909021 0
0.00084156363 0.00020146478 0
0.00031938453 0.00013038232 0
4.9127921e-05 8.9520028e-05 0
3.0875835e-05 2.9471898e-06 0
1.7919228e-06 6.6547373e-10 0
-2.658779e-09 2.6396256e-06 0
4.7194941e-09 2.6396222e-06 0
-2.1046641e-14 8.9385266e-10 0
3.2937035e-14 8.9196606e-10 0
-4.7167394e-09 2.6396219e-06 0
4.560599e-09 2.6396208e-06 0
-1.4549302e-07 2.6395539e-06 0
0 4.9122464e-05 0
1.4549305e-07 2.6395539e-06 0
-4.5243831e-09 2.6396208e-06 0
4.7553912e-09 2.6396208e-06 0
-4.8012323e-09 2.6396208e-06 0
4.7415871e-09 2.6396237e-06 0
-1.0961522e-14 8.8386409e-10 0
-4.7816386e-09 2.6396233e-06 0
4.7422413e-09 2.6396215e-06 0
-3.1745243e-14 8.9234908e-10 0
3.174525e-14 8.9234953e-10 0
-4.7422413e-09 2.6396215e-06 0
4.7786846e-09 2.6396222e-06 0
0 8.8675811e-10 0
-4.7786846e-09 2.6396222e-06 0
4.7422413e-09 2.6396215e-06 0
-3.174525e-14 8.9234953e-10 0
3.1745216e-14 8.9234853e-10 0
-4.7632502e-09 2.6396215e-06 0
4.7632502e-09 2.6396215e-06 0
-3.1746527e-14 8.9238178e-10 0
5.4852129e-14 8.8833646e-10 0
-5.2050755e-09 2.6550415e-06 0
-1.0827222e-06 5.3953058e-06 0
-4.4355795e-05 8.1448115e-06 0
-0.0001643585 2.1607659e-05 0
-0.00099233363 5.4352142e-08 0
-0.002931555 1.8653089e-05 0
0.0041050487 4.2904208e-05 0
0.0011329436 5.5777058e-05 0
0.00019588656 7.0633338e-05 0
8.0951322e-05 1.8026107e-05 0
8.5838299e-05 2.8076132e-05 0
3.8833646e-06 -6.2800538e-09 0
-1.6160229e-09 -2.2092148e-09 0
4.7746509e-09 -2.2092164e-09 0
0 -4.7746509e-09 0
0 -4.7746509e-09 0
-4.7746509e-09 -2.2092164e-09 0
4.7746509e-09 -2.2092173e-09 0
-4.774622e-09 -2.2093454e-09 0
0 1.9420256e-06 0
4.774622e-09 -2.2093454e-09 0
-4.7746509e-09 -2.2092173e-09 0
4.7746509e-09 -2.2092173e-09 0
-4.7746509e-09 -2.2092173e-09 0
4.7746509e-09 -2.2092161e-09 0
0 -4.7746509e-09 0
-4.7746562e-09 -2.2092159e-09 0
4.7746562e-09 -2.2092164e-09 0
0 -4.7746509e-09 0
0 -4.7746509e-09 0
-4.7746562e-09 -2.2092164e-09 0
4.7746562e-09 -2.2092159e-09 0
0 -4.7746509e-09 0
-4.7746562e-09 -2.2092159e-09 0
4.7746562e-09 -2.2092164e-09 0
0 -4.7746509e-09 0
0 -4.7746509e-09 0
-4.7746562e-09 -2.2092164e-09 0
4.7746562e-09 -2.2092164e-09 0
0 -4.7746509e-09 0
-2.4837179e-09 -4.7746509e-09 0
-2.6443824e-06 -2.257748e-09 0
-5.6153742e-05 9.0956485e-07 0
-9.5616233e-05 3.5313403e-06 0
-0.00017752973 1.1623996e-05 0
-0.0011226102 1.1865616e-06 0
-0.0041140323 3.0632754e-07 0
0.0041140374 1.2802215e-05 0
0.0011226257 1.2586522e-05 0
0.00017726776 2.536814e-06 0
9.5568379e-05 6.9049715e-06 0
5.615937e-05 3.6786491e-06 0
2.6396237e-06 4.6221977e-09 0
-2.2092161e-09 4.7746509e-09 0
4.7746509e-09 4.7746509e-09 0
0 4.7746509e-09 0
0 4.7746509e-09 0
-4.7746509e-09 4.7746509e-09 0
4.7746509e-09 4.7746509e-09 0
-4.7746509e-09 4.7746509e-09 0
0 6.1793544e-09 0
4.7746509e-09 4.7746509e-09 0
-4.7746509e-09 4.7746509e-09 0
4.7746509e-09 4.7746509e-09 0
-4.7746509e-09 4.7746509e-09 0
4.7746509e-09 4.7746509e-09 0
0 4.7746509e-09 0
-4.7746562e-09 4.7746509e-09 0
4.7746562e-09 4.7746509e-09 0
0 4.7746509e-09 0
0 4.7746509e-09 0