<?xml version="1.0" ?>

<VTKFile type="UnstructuredGrid" version="0.1" byte_order="BigEndian">

<UnstructuredGrid>

<Piece NumberOfPoints= " 2009 " NumberOfCells=" 2009 ">

<PointData Scalars="Pressure" Vectors="Velocity">

<DataArray type="Float32" Name="Pressure" format="ascii">

30.0437 29.8291 24.1418 9.54897 9.87085 4.07701 9.87085 9.87085 4.07701 4.07701 9.87085 9.87085 9.87085 10.5146 9.87085 9.87085 9.87085 9.87085 9.87085 4.07701 9.87085 9.87085 4.07701 4.07701 9.87085 9.87085 4.07701 9.87085 9.87085 4.07701 4.07701 9.87085 9.87085 4.07701 4.07701 9.87085 9.87085 4.07701 19.957 30.473 31.7607 23.498 23.6053 9.54897 7.29579 9.54897 5.14993 9.65626 9.65626 5.14993 5.14993 9.65626 9.65626 9.65626 7.0812 9.65626 9.65626 9.65626 9.65626 9.65626 5.14993 9.65626 9.65626 5.14993 5.14993 9.65626 9.65626 5.14993 9.65626 9.65626 5.14993 5.14993 9.65626 9.65626 5.14993 5.14993 9.65626 9.65626 4.82805 19.4205 30.1511 30.1511 31.9753 32.2973 19.0985 5.5791 3.32598 0 3.43327 3.43327 0 0 3.43327 3.43327 3.43327 9.01249 3.43327 3.43327 3.43327 3.43327 3.43327 0 3.43327 3.43327 0 0 3.43327 3.43327 0 3.43327 3.43327 0 0 3.43327 3.43327 0 0 3.43327 3.43327 0 11.4803 20.1716 20.0643 13.5189 13.197 4.72076 0 0 0 0 0 0 0 0 0 0 0 0 0 0 0 0 0 0 0 0 0 0 0 0 0 0 0 0 0 0 0 0 0 0 0 3.43327 9.65626 9.97815 9.87085 9.54897 3.32598 0 0 0 0 0 0 0 0 0 0 0 0 0 0 0 0 0 0 0 0 0 0 0 0 0 0 0 0 0 0 0 0 0 0 0 3.32598 9.54897 9.87085 4.07701 5.14993 0 0 0 0 0 0 0 0 0 0 0 0 0 0 0 0 0 0 0 0 0 0 0 0 0 0 0 0 0 0 0 0 0 0 0 0 0 5.14993 4.07701 9.87085 9.65626 3.43327 0 0 0 0 0 0 0 0 0 0 0 0 0 0 0 0 0 0 0 0 0 0 0 0 0 0 0 0 0 0 0 0 0 0 0 3.43327 9.65626 9.87085 9.87085 9.65626 3.43327 0 0 0 0 0 0 0 0 0 0 0 0 0 0 0 0 0 0 0 0 0 0 0 0 0 0 0 0 0 0 0 0 0 0 0 3.43327 9.65626 9.87085 4.07701 5.14993 0 0 0 0 0 0 0 0 0 0 0 0 0 0 0 0 0 0 0 0 0 0 0 0 0 0 0 0 0 0 0 0 0 0 0 0 0 5.14993 4.07701 4.07701 5.14993 0 0 0 0 0 0 0 0 0 0 0 0 0 0 0 0 0 0 0 0 0 0 0 0 0 0 0 0 0 0 0 0 0 0 0 0 0 5.14993 4.07701 9.87085 9.65626 3.43327 0 0 0 0 0 0 0 0 0 0 0 0 0 0 0 0 0 0 0 0 0 0 0 0 0 0 0 0 0 0 0 0 0 0 0 3.43327 9.65626 9.87085 9.87085 9.65626 3.43327 0 0 0 0 0 0 0 0 0 0 0 0 0 0 0 0 0 0 0 0 0 0 0 0 0 0 0 0 0 0 0 0 0 0 0 3.43327 9.65626 9.87085 9.87085 9.65626 3.43327 0 0 0 0 0 0 0 0 0 0 0 0 0 0 0 0 0 0 0 0 0 0 0 0 0 0 0 0 0 0 0 0 0 0 0 3.43327 9.65626 9.87085 10.5146 7.0812 9.01249 0 0 0 0 0 0 0 0 0 0 0 0 0 0 0 0 0 0 0 0 0 0 0 0 0 0 0 0 0 0 0 0 0 0 0 9.01249 7.0812 10.5146 9.87085 9.65626 3.43327 0 0 0 0 0 0 0 0 0 0 0 0 0 0 0 0 0 0 0 0 0 0 0 0 0 0 0 0 0 0 0 0 0 0 0 3.43327 9.65626 9.87085 9.87085 9.65626 3.43327 0 0 0 0 0 0 0 0 0 0 0 0 0 0 0 0 0 0 0 0 0 0 0 0 0 0 0 0 0 0 0 0 0 0 0 3.43327 9.65626 9.87085 9.87085 9.65626 3.43327 0 0 0 0 0 0 0 0 0 0 0 0 0 0 0 0 0 0 0 0 0 0 0 0 0 0 0 0 0 0 0 0 0 0 0 3.43327 9.65626 9.87085 9.87085 9.65626 3.43327 0 0 0 0 0 0 0 0 0 0 0 0 0 0 0 0 0 0 0 0 0 0 0 0 0 0 0 0 0 0 0 0 0 0 0 3.43327 9.65626 9.87085 9.87085 9.65626 3.43327 0 0 0 0 0 0 0 0 0 0 0 0 0 0 0 0 0 0 0 0 0 0 0 0 0 0 0 0 0 0 0 0 0 0 0 3.43327 9.65626 9.87085 4.07701 5.14993 0 0 0 0 0 0 0 0 0 0 0 0 0 0 0 0 0 0 0 0 0 0 0 0 0 0 0 0 0 0 0 0 0 0 0 0 0 5.14993 4.07701 9.87085 9.65626 3.43327 0 0 0 0 0 0 0 0 0 0 0 0 0 0 0 0 0 0 0 0 0 0 0 0 0 0 0 0 0 0 0 0 0 0 0 3.43327 9.65626 9.87085 9.87085 9.65626 3.43327 0 0 0 0 0 0 0 0 0 0 0 0 0 0 0 0 0 0 0 0 0 0 0 0 0 0 0 0 0 0 0 0 0 0 0 3.43327 9.65626 9.87085 4.07701 5.14993 0 0 0 0 0 0 0 0 0 0 0 0 0 0 0 0 0 0 0 0 0 0 0 0 0 0 0 0 0 0 0 0 0 0 0 0 0 5.14993 4.07701 4.07701 5.14993 0 0 0 0 0 0 0 0 0 0 0 0 0 0 0 0 0 0 0 0 0 0 0 0 0 0 0 0 0 0 0 0 0 0 0 0 0 5.14993 4.07701 9.87085 9.65626 3.43327 0 0 0 0 0 0 0 0 0 0 0 0 0 0 0 0 0 0 0 0 0 0 0 0 0 0 0 0 0 0 0 0 0 0 0 3.43327 9.65626 9.87085 9.87085 9.65626 3.43327 0 0 0 0 0 0 0 0 0 0 0 0 0 0 0 0 0 0 0 0 0 0 0 0 0 0 0 0 0 0 0 0 0 0 0 3.43327 9.65626 9.87085 4.07701 5.14993 0 0 0 0 0 0 0 0 0 0 0 0 0 0 0 0 0 0 0 0 0 0 0 0 0 0 0 0 0 0 0 0 0 0 0 0 0 5.14993 4.07701 9.87085 9.65626 3.43327 0 0 0 0 0 0 0 0 0 0 0 0 0 0 0 0 0 0 0 0 0 0 0 0 0 0 0 0 0 0 0 0 0 0 0 3.43327 9.65626 9.87085 9.87085 9.65626 3.43327 0 0 0 0 0 0 0 0 0 0 0 0 0 0 0 0 0 0 0 0 0 0 0 0 0 0 0 0 0 0 0 0 0 0 0 3.43327 9.65626 9.87085 4.07701 5.14993 0 0 0 0 0 0 0 0 0 0 0 0 0 0 0 0 0 0 0 0 0 0 0 0 0 0 0 0 0 0 0 0 0 0 0 0 0 5.14993 4.07701 4.07701 5.14993 0 0 0 0 0 0 0 0 0 0 0 0 0 0 0 0 0 0 0 0 0 0 0 0 0 0 0 0 0 0 0 0 0 0 0 0 0 5.14993 4.07701 9.87085 9.65626 3.43327 0 0 0 0 0 0 0 0 0 0 0 0 0 0 0 0 0 0 0 0 0 0 0 0 0 0 0 0 0 0 0 0 0 0 0 3.43327 9.65626 9.87085 9.87085 9.65626 3.43327 0 0 0 0 0 0 0 0 0 0 0 0 0 0 0 0 0 0 0 0 0 0 0 0 0 0 0 0 0 0 0 0 0 0 0 3.43327 9.65626 9.87085 4.07701 5.14993 0 0 0 0 0 0 0 0 0 0 0 0 0 0 0 0 0 0 0 0 0 0 0 0 0 0 0 0 0 0 0 0 0 0 0 0 0 5.14993 4.07701 4.07701 5.14993 0 0 0 0 0 0 0 0 0 0 0 0 0 0 0 0 0 0 0 0 0 0 0 0 0 0 0 0 0 0 0 0 0 0 0 0 0 5.14993 4.07701 9.87085 9.65626 3.43327 0 0 0 0 0 0 0 0 0 0 0 0 0 0 0 0 0 0 0 0 0 0 0 0 0 0 0 0 0 0 0 0 0 0 0 3.43327 9.65626 9.87085 9.87085 9.65626 3.43327 0 0 0 0 0 0 0 0 0 0 0 0 0 0 0 0 0 0 0 0 0 0 0 0 0 0 0 0 0 0 0 0 0 0 0 3.43327 9.65626 9.87085 4.07701 4.82805 0 0 0 0 0 0 0 0 0 0 0 0 0 0 0 0 0 0 0 0 0 0 0 0 0 0 0 0 0 0 0 0 0 0 0 0 0 4.82805 4.07701 19.957 19.4205 11.4803 3.43327 3.32598 0 3.43327 3.43327 0 0 3.43327 3.43327 3.43327 9.01249 3.43327 3.43327 3.43327 3.43327 3.43327 0 3.43327 3.43327 0 0 3.43327 3.43327 0 3.43327 3.43327 0 0 3.43327 3.43327 0 0 3.43327 3.43327 0 11.9095 19.7424 20.1716 30.473 30.1511 20.1716 9.65626 9.54897 5.14993 9.65626 9.65626 5.14993 5.14993 9.65626 9.65626 9.65626 7.0812 9.65626 9.65626 9.65626 9.65626 9.65626 5.14993 9.65626 9.65626 5.14993 5.14993 9.65626 9.65626 5.14993 9.65626 9.65626 5.14993 5.14993 9.65626 9.65626 5.14993 5.14993 9.65626 9.65626 4.82805 19.7424 30.1511 30.3657 31.7607 30.1511 20.0643 9.97815 9.87085 4.07701 9.87085 9.87085 4.07701 4.07701 9.87085 9.87085 9.87085 10.5146 9.87085 9.87085 9.87085 9.87085 9.87085 4.07701 9.87085 9.87085 4.07701 4.07701 9.87085 9.87085 4.07701 9.87085 9.87085 4.07701 4.07701 9.87085 9.87085 4.07701 4.07701 9.87085 9.87085 4.07701 20.1716 30.3657 31.868 0.1 0.1 0.1 0.1 0.1 0.1 0.1 0.1 0.1 0.1 0.1 0.1 0.1 0.1 0.1 0.1 0.1 0.1 0.1 0.1 0.1 0.1 0.1 0.1 0.1 0.1 0.1 0.1 0.1 0.1 0.1 0.1 0.1 0.1 0.1 0.1 0.1 0.1 0.1 0.1 0.1 0.1 0.1 0.1 0.1 0.1 0.1 0.1 0.1 0.1 0.1 0.1 0.1 0.1 0.1 0.1 0.1 0.1 0.1 0.1 0.1 0.1 0.1 0.1 0.1 0.1 0.1 0.1 0.1 0.1 0.1 0.1 0.1 0.1 0.1 0.1 0.1 0.1 0.1 0.1 0.1 0.1 0.1 0.1 0.1 0.1 0.1 0.1 0.1 0.1 0.1 0.1 0.1 0.1 0.1 0.1 0.1 0.1 0.1 0.1 0.1 0.1 0.1 0.1 0.1 0.1 0.1 0.1 0.1 0.1 0.1 0.1 0.1 0.1 0.1 0.1 0.1 0.1 0.1 0.1 0.1 0.1 0.1 0.1 0.1 0.1 0.1 0.1 0.1 0.1 0.1 0.1 0.1 0.1 0.1 0.1 0.1 0.1 0.1 0.1 0.1 0.1 0.1 0.1 0.1 0.1 0.1 0.1 0.1 0.1 0.1 0.1 0.1 0.1 0.1 0.1 0.1 0.1 0.1 0.1 0.1 0.1 0.1 0.1 0.1 0.1 0.1 0.1 0.1 0.1 0.1 0.1 0.1 0.1 0.1 0.1 0.1 0.1 0.1 0.1 0.1 0.1 0.1 0.1 0.1 0.1 0.1 0.1 0.1 0.1 0.1 0.1 0.1 0.1 0.1 0.1 0.1 0.1 0.1 0.1 0.1 0.1 0.1 0.1 0.1 0.1 0.1 0.1 0.1 0.1 0.1 0.1 0.1 0.1 0.1 0.1 0.1 0.1 0.1 0.1 0.1 0.1 0.1 0.1 0.1 0.1 0.1 0.1 0.1 0.1 0.1 0.1 0.1 0.1 0.1 0.1 0.1 0.1 0.1 0.1 0.1 0.1 0.1 0.1 0.1 0.1 0.1 0.1 0.1 0.1 0.1 0.1 0.1 0.1 0.1 0.1 0.1 0.1 0.1 0.1 0.1 0.1 0.1 0.1 0.1 0.1 0.1 0.1 0.1 0.1 0.1 0.1 0.1 0.1 0.1 0.1 0.1 0.1 0.1 0.1 0.1 0.1 0.1 0.1 0.1 0.1 0.1 0.1 0.1 0.1 0.1 0.1 0.1 0.1 0.1 0.1 0.1 0.1 0.1 0.1 0.1 0.1 0.1 0.1 0.1 0.1 0.1 0.1 0.1 0.1 0.1 0.1 0.1 0.1 0.1 0.1 0.1 0.1 0.1 0.1 0.1 0.1 0.1 0.1 0.1 0.1 0.1 0.1 
</DataArray>

<DataArray type="Float32" Name="Density" format="ascii">
1000.03 1000.03 1000.03 1000.01 1000.01 1000 1000.01 1000.01 1000 1000 1000.01 1000.01 1000.01 1000.01 1000.01 1000.01 1000.01 1000.01 1000.01 1000 1000.01 1000.01 1000 1000 1000.01 1000.01 1000 1000.01 1000.01 1000 1000 1000.01 1000.01 1000 1000 1000.01 1000.01 1000 1000.02 1000.03 1000.04 1000.03 1000.03 1000.01 1000.01 1000.01 1000.01 1000.01 1000.01 1000.01 1000.01 1000.01 1000.01 1000.01 1000.01 1000.01 1000.01 1000.01 1000.01 1000.01 1000.01 1000.01 1000.01 1000.01 1000.01 1000.01 1000.01 1000.01 1000.01 1000.01 1000.01 1000.01 1000.01 1000.01 1000.01 1000.01 1000.01 1000.01 1000.01 1000.02 1000.03 1000.03 1000.04 1000.04 1000.02 1000.01 1000 1000 1000 1000 1000 1000 1000 1000 1000 1000.01 1000 1000 1000 1000 1000 1000 1000 1000 1000 1000 1000 1000 1000 1000 1000 1000 1000 1000 1000 1000 1000 1000 1000 1000 1000.01 1000.02 1000.02 1000.02 1000.01 1000.01 1000 1000 1000 1000 1000 1000 1000 1000 1000 1000 1000 1000 1000 1000 1000 1000 1000 1000 1000 1000 1000 1000 1000 1000 1000 1000 1000 1000 1000 1000 1000 1000 1000 1000 1000 1000 1000.01 1000.01 1000.01 1000.01 1000 1000 1000 1000 1000 1000 1000 1000 1000 1000 1000 1000 1000 1000 1000 1000 1000 1000 1000 1000 1000 1000 1000 1000 1000 1000 1000 1000 1000 1000 1000 1000 1000 1000 1000 1000 1000 1000.01 1000.01 1000 1000.01 1000 1000 1000 1000 1000 1000 1000 1000 1000 1000 1000 1000 1000 1000 1000 1000 1000 1000 1000 1000 1000 1000 1000 1000 1000 1000 1000 1000 1000 1000 1000 1000 1000 1000 1000 1000 1000 1000.01 1000 1000.01 1000.01 1000 1000 1000 1000 1000 1000 1000 1000 1000 1000 1000 1000 1000 1000 1000 1000 1000 1000 1000 1000 1000 1000 1000 1000 1000 1000 1000 1000 1000 1000 1000 1000 1000 1000 1000 1000 1000 1000.01 1000.01 1000.01 1000.01 1000 1000 1000 1000 1000 1000 1000 1000 1000 1000 1000 1000 1000 1000 1000 1000 1000 1000 1000 1000 1000 1000 1000 1000 1000 1000 1000 1000 1000 1000 1000 1000 1000 1000 1000 1000 1000 1000.01 1000.01 1000 1000.01 1000 1000 1000 1000 1000 1000 1000 1000 1000 1000 1000 1000 1000 1000 1000 1000 1000 1000 1000 1000 1000 1000 1000 1000 1000 1000 1000 1000 1000 1000 1000 1000 1000 1000 1000 1000 1000 1000.01 1000 1000 1000.01 1000 1000 1000 1000 1000 1000 1000 1000 1000 1000 1000 1000 1000 1000 1000 1000 1000 1000 1000 1000 1000 1000 1000 1000 1000 1000 1000 1000 1000 1000 1000 1000 1000 1000 1000 1000 1000 1000.01 1000 1000.01 1000.01 1000 1000 1000 1000 1000 1000 1000 1000 1000 1000 1000 1000 1000 1000 1000 1000 1000 1000 1000 1000 1000 1000 1000 1000 1000 1000 1000 1000 1000 1000 1000 1000 1000 1000 1000 1000 1000 1000.01 1000.01 1000.01 1000.01 1000 1000 1000 1000 1000 1000 1000 1000 1000 1000 1000 1000 1000 1000 1000 1000 1000 1000 1000 1000 1000 1000 1000 1000 1000 1000 1000 1000 1000 1000 1000 1000 1000 1000 1000 1000 1000 1000.01 1000.01 1000.01 1000.01 1000 1000 1000 1000 1000 1000 1000 1000 1000 1000 1000 1000 1000 1000 1000 1000 1000 1000 1000 1000 1000 1000 1000 1000 1000 1000 1000 1000 1000 1000 1000 1000 1000 1000 1000 1000 1000 1000.01 1000.01 1000.01 1000.01 1000.01 1000 1000 1000 1000 1000 1000 1000 1000 1000 1000 1000 1000 1000 1000 1000 1000 1000 1000 1000 1000 1000 1000 1000 1000 1000 1000 1000 1000 1000 1000 1000 1000 1000 1000 1000 1000.01 1000.01 1000.01 1000.01 1000.01 1000 1000 1000 1000 1000 1000 1000 1000 1000 1000 1000 1000 1000 1000 1000 1000 1000 1000 1000 1000 1000 1000 1000 1000 1000 1000 1000 1000 1000 1000 1000 1000 1000 1000 1000 1000 1000 1000.01 1000.01 1000.01 1000.01 1000 1000 1000 1000 1000 1000 1000 1000 1000 1000 1000 1000 1000 1000 1000 1000 1000 1000 1000 1000 1000 1000 1000 1000 1000 1000 1000 1000 1000 1000 1000 1000 1000 1000 1000 1000 1000 1000.01 1000.01 1000.01 1000.01 1000 1000 1000 1000 1000 1000 1000 1000 1000 1000 1000 1000 1000 1000 1000 1000 1000 1000 1000 1000 1000 1000 1000 1000 1000 1000 1000 1000 1000 1000 1000 1000 1000 1000 1000 1000 1000 1000.01 1000.01 1000.01 1000.01 1000 1000 1000 1000 1000 1000 1000 1000 1000 1000 1000 1000 1000 1000 1000 1000 1000 1000 1000 1000 1000 1000 1000 1000 1000 1000 1000 1000 1000 1000 1000 1000 1000 1000 1000 1000 1000 1000.01 1000.01 1000.01 1000.01 1000 1000 1000 1000 1000 1000 1000 1000 1000 1000 1000 1000 1000 1000 1000 1000 1000 1000 1000 1000 1000 1000 1000 1000 1000 1000 1000 1000 1000 1000 1000 1000 1000 1000 1000 1000 1000 1000.01 1000.01 1000 1000.01 1000 1000 1000 1000 1000 1000 1000 1000 1000 1000 1000 1000 1000 1000 1000 1000 1000 1000 1000 1000 1000 1000 1000 1000 1000 1000 1000 1000 1000 1000 1000 1000 1000 1000 1000 1000 1000 1000.01 1000 1000.01 1000.01 1000 1000 1000 1000 1000 1000 1000 1000 1000 1000 1000 1000 1000 1000 1000 1000 1000 1000 1000 1000 1000 1000 1000 1000 1000 1000 1000 1000 1000 1000 1000 1000 1000 1000 1000 1000 1000 1000.01 1000.01 1000.01 1000.01 1000 1000 1000 1000 1000 1000 1000 1000 1000 1000 1000 1000 1000 1000 1000 1000 1000 1000 1000 1000 1000 1000 1000 1000 1000 1000 1000 1000 1000 1000 1000 1000 1000 1000 1000 1000 1000 1000.01 1000.01 1000 1000.01 1000 1000 1000 1000 1000 1000 1000 1000 1000 1000 1000 1000 1000 1000 1000 1000 1000 1000 1000 1000 1000 1000 1000 1000 1000 1000 1000 1000 1000 1000 1000 1000 1000 1000 1000 1000 1000 1000.01 1000 1000 1000.01 1000 1000 1000 1000 1000 1000 1000 1000 1000 1000 1000 1000 1000 1000 1000 1000 1000 1000 1000 1000 1000 1000 1000 1000 1000 1000 1000 1000 1000 1000 1000 1000 1000 1000 1000 1000 1000 1000.01 1000 1000.01 1000.01 1000 1000 1000 1000 1000 1000 1000 1000 1000 1000 1000 1000 1000 1000 1000 1000 1000 1000 1000 1000 1000 1000 1000 1000 1000 1000 1000 1000 1000 1000 1000 1000 1000 1000 1000 1000 1000 1000.01 1000.01 1000.01 1000.01 1000 1000 1000 1000 1000 1000 1000 1000 1000 1000 1000 1000 1000 1000 1000 1000 1000 1000 1000 1000 1000 1000 1000 1000 1000 1000 1000 1000 1000 1000 1000 1000 1000 1000 1000 1000 1000 1000.01 1000.01 1000 1000.01 1000 1000 1000 1000 1000 1000 1000 1000 1000 1000 1000 1000 1000 1000 1000 1000 1000 1000 1000 1000 1000 1000 1000 1000 1000 1000 1000 1000 1000 1000 1000 1000 1000 1000 1000 1000 1000 1000.01 1000 1000.01 1000.01 1000 1000 1000 1000 1000 1000 1000 1000 1000 1000 1000 1000 1000 1000 1000 1000 1000 1000 1000 1000 1000 1000 1000 1000 1000 1000 1000 1000 1000 1000 1000 1000 1000 1000 1000 1000 1000 1000.01 1000.01 1000.01 1000.01 1000 1000 1000 1000 1000 1000 1000 1000 1000 1000 1000 1000 1000 1000 1000 1000 1000 1000 1000 1000 1000 1000 1000 1000 1000 1000 1000 1000 1000 1000 1000 1000 1000 1000 1000 1000 1000 1000.01 1000.01 1000 1000.01 1000 1000 1000 1000 1000 1000 1000 1000 1000 1000 1000 1000 1000 1000 1000 1000 1000 1000 1000 1000 1000 1000 1000 1000 1000 1000 1000 1000 1000 1000 1000 1000 1000 1000 1000 1000 1000 1000.01 1000 1000 1000.01 1000 1000 1000 1000 1000 1000 1000 1000 1000 1000 1000 1000 1000 1000 1000 1000 1000 1000 1000 1000 1000 1000 1000 1000 1000 1000 1000 1000 1000 1000 1000 1000 1000 1000 1000 1000 1000 1000.01 1000 1000.01 1000.01 1000 1000 1000 1000 1000 1000 1000 1000 1000 1000 1000 1000 1000 1000 1000 1000 1000 1000 1000 1000 1000 1000 1000 1000 1000 1000 1000 1000 1000 1000 1000 1000 1000 1000 1000 1000 1000 1000.01 1000.01 1000.01 1000.01 1000 1000 1000 1000 1000 1000 1000 1000 1000 1000 1000 1000 1000 1000 1000 1000 1000 1000 1000 1000 1000 1000 1000 1000 1000 1000 1000 1000 1000 1000 1000 1000 1000 1000 1000 1000 1000 1000.01 1000.01 1000 1000.01 1000 1000 1000 1000 1000 1000 1000 1000 1000 1000 1000 1000 1000 1000 1000 1000 1000 1000 1000 1000 1000 1000 1000 1000 1000 1000 1000 1000 1000 1000 1000 1000 1000 1000 1000 1000 1000 1000.01 1000 1000 1000.01 1000 1000 1000 1000 1000 1000 1000 1000 1000 1000 1000 1000 1000 1000 1000 1000 1000 1000 1000 1000 1000 1000 1000 1000 1000 1000 1000 1000 1000 1000 1000 1000 1000 1000 1000 1000 1000 1000.01 1000 1000.01 1000.01 1000 1000 1000 1000 1000 1000 1000 1000 1000 1000 1000 1000 1000 1000 1000 1000 1000 1000 1000 1000 1000 1000 1000 1000 1000 1000 1000 1000 1000 1000 1000 1000 1000 1000 1000 1000 1000 1000.01 1000.01 1000.01 1000.01 1000 1000 1000 1000 1000 1000 1000 1000 1000 1000 1000 1000 1000 1000 1000 1000 1000 1000 1000 1000 1000 1000 1000 1000 1000 1000 1000 1000 1000 1000 1000 1000 1000 1000 1000 1000 1000 1000.01 1000.01 1000 1000.01 1000 1000 1000 1000 1000 1000 1000 1000 1000 1000 1000 1000 1000 1000 1000 1000 1000 1000 1000 1000 1000 1000 1000 1000 1000 1000 1000 1000 1000 1000 1000 1000 1000 1000 1000 1000 1000 1000.01 1000 1000.02 1000.02 1000.01 1000 1000 1000 1000 1000 1000 1000 1000 1000 1000 1000.01 1000 1000 1000 1000 1000 1000 1000 1000 1000 1000 1000 1000 1000 1000 1000 1000 1000 1000 1000 1000 1000 1000 1000 1000 1000.01 1000.02 1000.02 1000.03 1000.03 1000.02 1000.01 1000.01 1000.01 1000.01 1000.01 1000.01 1000.01 1000.01 1000.01 1000.01 1000.01 1000.01 1000.01 1000.01 1000.01 1000.01 1000.01 1000.01 1000.01 1000.01 1000.01 1000.01 1000.01 1000.01 1000.01 1000.01 1000.01 1000.01 1000.01 1000.01 1000.01 1000.01 1000.01 1000.01 1000.01 1000.02 1000.03 1000.03 1000.04 1000.03 1000.02 1000.01 1000.01 1000 1000.01 1000.01 1000 1000 1000.01 1000.01 1000.01 1000.01 1000.01 1000.01 1000.01 1000.01 1000.01 1000 1000.01 1000.01 1000 1000 1000.01 1000.01 1000 1000.01 1000.01 1000 1000 1000.01 1000.01 1000 1000 1000.01 1000.01 1000 1000.02 1000.03 1000.04 1000 1000 1000 1000 1000 1000 1000 1000 1000 1000 1000 1000 1000 1000 1000 1000 1000 1000 1000 1000 1000 1000 1000 1000 1000 1000 1000 1000 1000 1000 1000 1000 1000 1000 1000 1000 1000 1000 1000 1000 1000 1000 1000 1000 1000 1000 1000 1000 1000 1000 1000 1000 1000 1000 1000 1000 1000 1000 1000 1000 1000 1000 1000 1000 1000 1000 1000 1000 1000 1000 1000 1000 1000 1000 1000 1000 1000 1000 1000 1000 1000 1000 1000 1000 1000 1000 1000 1000 1000 1000 1000 1000 1000 1000 1000 1000 1000 1000 1000 1000 1000 1000 1000 1000 1000 1000 1000 1000 1000 1000 1000 1000 1000 1000 1000 1000 1000 1000 1000 1000 1000 1000 1000 1000 1000 1000 1000 1000 1000 1000 1000 1000 1000 1000 1000 1000 1000 1000 1000 1000 1000 1000 1000 1000 1000 1000 1000 1000 1000 1000 1000 1000 1000 1000 1000 1000 1000 1000 1000 1000 1000 1000 1000 1000 1000 1000 1000 1000 1000 1000 1000 1000 1000 1000 1000 1000 1000 1000 1000 1000 1000 1000 1000 1000 1000 1000 1000 1000 1000 1000 1000 1000 1000 1000 1000 1000 1000 1000 1000 1000 1000 1000 1000 1000 1000 1000 1000 1000 1000 1000 1000 1000 1000 1000 1000 1000 1000 1000 1000 1000 1000 1000 1000 1000 1000 1000 1000 1000 1000 1000 1000 1000 1000 1000 1000 1000 1000 1000 1000 1000 1000 1000 1000 1000 1000 1000 1000 1000 1000 1000 1000 1000 1000 1000 1000 1000 1000 1000 1000 1000 1000 1000 1000 1000 1000 1000 1000 1000 1000 1000 1000 1000 1000 1000 1000 1000 1000 1000 1000 1000 1000 1000 1000 1000 1000 1000 1000 1000 1000 1000 1000 1000 1000 1000 1000 1000 1000 1000 1000 1000 1000 1000 1000 1000 1000 1000 1000 1000 1000 1000 1000 1000 1000 1000 1000 1000 1000 1000 1000 1000 1000 1000 1000 1000 1000 1000 1000 1000 
</DataArray>
<DataArray type="Float32" Name="Velocity" NumberOfComponents="3" format="ascii">
0.0041109645 0.0061066435 0
0.0011112392 0.005892864 0
-0.00023860748 0.0059579178 0
8.9212363e-06 0.0050246906 0
1.8793145e-06 0.0042107324 0
0 0.0027658115 0
1.95311e-07 0.0042236 0
-1.9537868e-07 0.0042236 0
2.6703015e-10 0.0027659098 0
-4.4169126e-12 0.0027659298 0
4.0185571e-07 0.0042235972 0
-1.5604968e-08 0.0042235986 0
2.2979556e-07 0.0042235986 0
0 0.0051779444 0
-1.506349e-07 0.0042235986 0
-2.2176543e-07 0.0042235991 0
1.4875469e-08 0.0042235986 0
-2.6710785e-07 0.0042235986 0
4.7386044e-07 0.0042235958 0
0 0.0027658115 0
3.3129686e-07 0.0042235977 0
-3.3129686e-07 0.0042235977 0
1.0799011e-10 0.0027659168 0
-1.0799011e-10 0.0027659168 0
3.3129686e-07 0.0042235977 0
-3.3129686e-07 0.0042235977 0
0 0.0027658115 0
3.3129686e-07 0.0042235977 0
-3.3129686e-07 0.0042235977 0
1.0799011e-10 0.0027659168 0
-1.0799011e-10 0.0027659168 0
3.3129686e-07 0.0042235977 0
-3.3129686e-07 0.0042235977 0
1.0799011e-10 0.0027659168 0
-1.0799011e-10 0.0027659168 0
3.313009e-07 0.0042235977 0
-3.3141364e-07 0.0042235977 0
4.0052037e-09 0.0027661303 0
-0.00018648585 0.0041822209 0
-0.0011620435 0.0039714994 0
-0.0042528268 0.0042444882 0
0.0039791577 0.001466385 0
0.0013129646 0.0015305048 0
0.00016456068 0.0014547793 0
8.5841129e-06 0.0012137125 0
9.8756072e-06 0.0012337556 0
-2.0128708e-09 0.00070322602 0
-1.0181847e-07 0.0012372556 0
1.0178076e-07 0.0012372556 0
-4.5884349e-07 0.00075717474 0
1.9488864e-07 0.00075763545 0
-1.8962734e-07 0.0012372556 0
-1.564101e-08 0.0012372555 0
-2.1540248e-07 0.0012372544 0
0 0.0015379798 0
-4.5889291e-07 0.0012372545 0
5.071459e-08 0.0012372554 0
4.8109666e-07 0.0012372555 0
-3.0063498e-07 0.001237257 0
1.8312417e-07 0.0012372556 0
-2.3393294e-11 0.00070322905 0
-3.8815017e-07 0.0012372553 0
3.8815017e-07 0.0012372553 0
-5.8952003e-07 0.00075732777 0
5.8952003e-07 0.00075732777 0
-3.8815017e-07 0.0012372553 0
3.8815017e-07 0.0012372553 0
6.1845636e-15 0.00070322905 0
-3.8815017e-07 0.0012372553 0
3.8815017e-07 0.0012372553 0
-5.8952003e-07 0.00075732777 0
5.8952003e-07 0.00075732777 0
-3.8815017e-07 0.0012372553 0
3.8815017e-07 0.0012372553 0
-5.8952003e-07 0.00075732777 0
5.8952003e-07 0.00075732777 0
-3.8814815e-07 0.0012372553 0
3.8818226e-07 0.0012372553 0
-7.7277991e-06 0.00078767072 0
-0.00019710985 0.0012387062 0
-0.0012927091 0.0013009815 0
-0.003955971 0.0011396512 0
0.0038861022 0.00026999621 0
0.0013087256 0.00033380411 0
0.00024004736 0.0001320453 0
1.0273854e-05 5.6658329e-05 0
1.8785437e-06 3.7042933e-05 0
2.5459681e-07 8.8002389e-06 0
4.0964295e-07 3.7564419e-05 0
8.9982962e-08 3.7563568e-05 0
1.0212823e-07 8.8371817e-06 0
-5.1707536e-07 8.8438419e-06 0
-2.2666167e-07 3.756419e-05 0
-8.2788873e-08 3.7563474e-05 0
6.7848367e-07 3.7563437e-05 0
0 9.7502183e-05 0
-6.7760152e-07 3.7563437e-05 0
-2.8876991e-07 3.7563474e-05 0
6.1278627e-08 3.7563474e-05 0
1.4567567e-07 3.7563474e-05 0
2.8272103e-07 3.7564489e-05 0
1.1787117e-07 8.80067e-06 0
2.1153221e-07 3.756419e-05 0
-2.4530982e-08 3.7563881e-05 0
3.1997337e-07 8.8393053e-06 0
-3.1997337e-07 8.8393053e-06 0
2.4530982e-08 3.7563881e-05 0
-2.1154091e-07 3.756419e-05 0
-1.9718671e-15 8.8009701e-06 0
2.1154091e-07 3.756419e-05 0
-2.4530982e-08 3.7563881e-05 0
3.1997337e-07 8.8393053e-06 0
-3.1997337e-07 8.8393053e-06 0
2.4530982e-08 3.7563881e-05 0
-2.4530982e-08 3.7563881e-05 0
3.1997337e-07 8.8393053e-06 0
-3.1997337e-07 8.8393053e-06 0
-3.9556514e-07 3.7563881e-05 0
-1.655374e-07 3.7564758e-05 0
-3.7508021e-06 8.8278248e-06 0
-7.4600641e-05 7.9322424e-05 0
-0.0012305145 0.00016643612 0
-0.0041459571 0.00016530212 0
0.0042234664 7.3032621e-05 0
0.0012378587 6.968213e-05 0
4.2600972e-05 1.9229803e-05 0
1.0722162e-06 1.9479564e-06 0
5.3285252e-09 9.0749296e-07 0
-2.534792e-14 1.4669128e-08 0
-4.7756243e-09 9.2873603e-07 0
4.7724709e-09 9.2873586e-07 0
-3.8232906e-14 1.4679038e-08 0
4.112719e-14 1.4683008e-08 0
-4.7677311e-09 9.2873603e-07 0
4.7796478e-09 9.2873557e-07 0
-4.7677182e-09 9.287354e-07 0
0 4.7485855e-06 0
4.7677182e-09 9.287354e-07 0
-4.7787592e-09 9.2873557e-07 0
4.7714162e-09 9.2873557e-07 0
-4.7771578e-09 9.2873557e-07 0
4.771743e-09 9.2873597e-07 0
0 1.46693e-08 0
-4.7728923e-09 9.2873603e-07 0
4.7728923e-09 9.2873597e-07 0
-2.8746774e-14 1.4680323e-08 0
2.8746774e-14 1.4680323e-08 0
-4.7728923e-09 9.2873597e-07 0
4.7728923e-09 9.2873603e-07 0
0 1.4669245e-08 0
-4.7728923e-09 9.2873603e-07 0
4.7728923e-09 9.2873597e-07 0
-2.8746774e-14 1.4680323e-08 0
2.8746774e-14 1.4680323e-08 0
-4.7728923e-09 9.2873597e-07 0
4.7728923e-09 9.2873597e-07 0
-2.8746774e-14 1.4680323e-08 0
2.8746774e-14 1.4680323e-08 0
-4.7727067e-09 9.2873597e-07 0
4.3686712e-09 9.2873631e-07 0
-9.513879e-07 1.4489316e-08 0
-3.7612092e-05 3.7632751e-06 0
-0.0012378052 1.4109164e-05 0
-0.0042245081 1.3050264e-05 0
0.0042106616 1.5849075e-05 0
0.0012337159 2.1372434e-05 0
3.7044556e-05 1.0330394e-06 0
9.0749359e-07 6.0930634e-09 0
5.2603557e-09 5.2603557e-09 0
0 4.7808633e-09 0
-4.7746509e-09 5.2759512e-09 0
4.7746509e-09 5.2759512e-09 0
0 4.780865e-09 0
0 4.7808677e-09 0
-4.7746509e-09 5.2759512e-09 0
4.7746509e-09 5.2759508e-09 0
-4.7746509e-09 5.2759499e-09 0
0 9.8192245e-09 0
4.7746509e-09 5.2759499e-09 0
-4.7746509e-09 5.2759508e-09 0
4.7746509e-09 5.2759508e-09 0
-4.7746509e-09 5.2759508e-09 0
4.7746509e-09 5.2759512e-09 0
0 4.7808633e-09 0
-4.7746562e-09 5.2759512e-09 0
4.7746562e-09 5.2759512e-09 0
0 4.7808655e-09 0
0 4.7808655e-09 0
-4.7746562e-09 5.2759512e-09 0
4.7746562e-09 5.2759512e-09 0
0 4.7808633e-09 0
-4.7746562e-09 5.2759512e-09 0
4.7746562e-09 5.2759512e-09 0
0 4.7808655e-09 0
0 4.7808655e-09 0
-4.7746562e-09 5.2759512e-09 0
4.7746562e-09 5.2759512e-09 0
0 4.7808655e-09 0
0 4.7808655e-09 0
-4.7746562e-09 5.2759512e-09 0
4.3849107e-09 5.2759512e-09 0
-9.1216634e-07 4.7686712e-09 0
-3.7045185e-05 9.2448312e-07 0
-0.0012337373 1.3880756e-05 0
-0.0042106588 1.1304312e-05 0
0.0027659431 -6.7827161e-10 0
0.00076588243 8.1331081e-07 0
8.8471143e-06 2.2568298e-07 0
1.4683338e-08 -2.2236128e-14 0
4.7808677e-09 0 0
0 0 0
-4.7746509e-09 0 0
4.7746509e-09 0 0
0 0 0
0 0 0
-4.7746509e-09 0 0
4.7746509e-09 0 0
-4.7746509e-09 0 0
0 0 0
4.7746509e-09 0 0
-4.7746509e-09 0 0
4.7746509e-09 0 0
-4.7746509e-09 0 0
4.7746509e-09 0 0
0 0 0
-4.7746562e-09 0 0
4.7746562e-09 0 0
0 0 0
0 0 0
-4.7746562e-09 0 0
4.7746562e-09 0 0
0 0 0
-4.7746562e-09 0 0
4.7746562e-09 0 0
0 0 0
0 0 0
-4.7746562e-09 0 0
4.7746562e-09 0 0
0 0 0
0 0 0
-4.7746562e-09 0 0
4.7746562e-09 0 0
-1.9184631e-08 -1.7385278e-14 0
-8.8352581e-06 3.6400573e-07 0
-0.00075713388 2.6994766e-07 0
-0.0027659438 -2.1594924e-10 0
0.0042236 1.9531129e-07 0
0.0012372556 -1.0181847e-07 0
3.7564419e-05 4.0962357e-07 0
9.2873603e-07 -4.7756243e-09 0
5.2759512e-09 -4.7746509e-09 0
0 -4.7746509e-09 0
-4.7746509e-09 -4.7746509e-09 0
4.7746509e-09 -4.7746509e-09 0
0 -4.7746509e-09 0
0 -4.7746509e-09 0
-4.7746509e-09 -4.7746509e-09 0
4.7746509e-09 -4.7746509e-09 0
-4.7746509e-09 -4.7746509e-09 0
0 -4.7746509e-09 0
4.7746509e-09 -4.7746509e-09 0
-4.7746509e-09 -4.7746509e-09 0
4.7746509e-09 -4.7746509e-09 0
-4.7746509e-09 -4.7746509e-09 0
4.7746509e-09 -4.7746509e-09 0
0 -4.7746509e-09 0
-4.7746562e-09 -4.7746509e-09 0
4.7746562e-09 -4.7746509e-09 0
0 -4.7746509e-09 0
0 -4.7746509e-09 0
-4.7746562e-09 -4.7746509e-09 0
4.7746562e-09 -4.7746509e-09 0
0 -4.7746509e-09 0
-4.7746562e-09 -4.7746509e-09 0
4.7746562e-09 -4.7746509e-09 0
0 -4.7746509e-09 0
0 -4.7746509e-09 0
-4.7746562e-09 -4.7746509e-09 0
4.7746562e-09 -4.7746509e-09 0
0 -4.7746509e-09 0
0 -4.7746509e-09 0
-4.7746562e-09 -4.7746509e-09 0
4.3748849e-09 -4.7746509e-09 0
-9.3341623e-07 -4.7756243e-09 0
-3.7564711e-05 2.5849764e-07 0
-0.0012372319 -1.0181218e-07 0
-0.0042235935 1.9530462e-07 0
0.0042236 -1.9537868e-07 0
0.0012372556 1.0178076e-07 0
3.7563568e-05 8.9982962e-08 0
9.2873586e-07 4.7724709e-09 0
5.2759512e-09 4.7746509e-09 0
0 4.7746509e-09 0
-4.7746509e-09 4.7746509e-09 0
4.7746509e-09 4.7746509e-09 0
0 4.7746509e-09 0
0 4.7746509e-09 0
-4.7746509e-09 4.7746509e-09 0
4.7746509e-09 4.7746509e-09 0
-4.7746509e-09 4.7746509e-09 0
0 4.7746509e-09 0
4.7746509e-09 4.7746509e-09 0
-4.7746509e-09 4.7746509e-09 0
4.7746509e-09 4.7746509e-09 0
-4.7746509e-09 4.7746509e-09 0
4.7746509e-09 4.7746509e-09 0
0 4.7746509e-09 0
-4.7746562e-09 4.7746509e-09 0
4.7746562e-09 4.7746509e-09 0
0 4.7746509e-09 0
0 4.7746509e-09 0
-4.7746562e-09 4.7746509e-09 0
4.7746562e-09 4.7746509e-09 0
0 4.7746509e-09 0
-4.7746562e-09 4.7746509e-09 0
4.7746562e-09 4.7746509e-09 0
0 4.7746509e-09 0
0 4.7746509e-09 0
-4.7746562e-09 4.7746509e-09 0
4.7746562e-09 4.7746509e-09 0
0 4.7746509e-09 0
0 4.7746509e-09 0
-4.7746562e-09 4.7746509e-09 0
4.3748849e-09 4.7746509e-09 0
-9.3341606e-07 4.7724709e-09 0
-3.7564168e-05 8.9982919e-08 0
-0.0012372319 1.0177447e-07 0
-0.0042235935 -1.9537231e-07 0
0.0027659098 2.6703015e-10 0
0.00075717474 -4.5884349e-07 0
8.8371817e-06 1.0212824e-07 0
1.4679038e-08 -3.8232906e-14 0
4.780865e-09 0 0
0 0 0
-4.7746509e-09 0 0
4.7746509e-09 0 0
0 0 0
0 0 0
-4.7746509e-09 0 0
4.7746509e-09 0 0
-4.7746509e-09 0 0
0 0 0
4.7746509e-09 0 0
-4.7746509e-09 0 0
4.7746509e-09 0 0
-4.7746509e-09 0 0
4.7746509e-09 0 0
0 0 0
-4.7746562e-09 0 0
4.7746562e-09 0 0
0 0 0
0 0 0
-4.7746562e-09 0 0
4.7746562e-09 0 0
0 0 0
-4.7746562e-09 0 0
4.7746562e-09 0 0
0 0 0
0 0 0
-4.7746562e-09 0 0
4.7746562e-09 0 0
0 0 0
0 0 0
-4.7746562e-09 0 0
4.7746562e-09 0 0
-1.9185673e-08 -3.821111e-14 0
-8.8375264e-06 1.0212824e-07 0
-0.00075716304 -4.5884349e-07 0
-0.0027659454 2.6701438e-10 0
0.0027659298 -4.4169126e-12 0
0.00075763545 1.9488866e-07 0
8.8438419e-06 -5.1707536e-07 0
1.4683008e-08 4.112719e-14 0
4.7808677e-09 0 0
0 0 0
-4.7746509e-09 0 0
4.7746509e-09 0 0
0 0 0
0 0 0
-4.7746509e-09 0 0
4.7746509e-09 0 0
-4.7746509e-09 0 0
0 0 0
4.7746509e-09 0 0
-4.7746509e-09 0 0
4.7746509e-09 0 0
-4.7746509e-09 0 0
4.7746509e-09 0 0
0 0 0
-4.7746562e-09 0 0
4.7746562e-09 0 0
0 0 0
0 0 0
-4.7746562e-09 0 0
4.7746562e-09 0 0
0 0 0
-4.7746562e-09 0 0
4.7746562e-09 0 0
0 0 0
0 0 0
-4.7746562e-09 0 0
4.7746562e-09 0 0
0 0 0
0 0 0
-4.7746562e-09 0 0
4.7746562e-09 0 0
-1.918964e-08 4.110474e-14 0
-8.8441784e-06 -5.1707531e-07 0
-0.00075762451 1.9488787e-07 0
-0.0027659654 -4.4162881e-12 0
0.0042235972 4.0185571e-07 0
0.0012372556 -1.8962734e-07 0
3.756419e-05 -2.2666167e-07 0
9.2873603e-07 -4.7677311e-09 0
5.2759512e-09 -4.7746509e-09 0
0 -4.7746509e-09 0
-4.7746509e-09 -4.7746509e-09 0
4.7746509e-09 -4.7746509e-09 0
0 -4.7746509e-09 0
0 -4.7746509e-09 0
-4.7746509e-09 -4.7746509e-09 0
4.7746509e-09 -4.7746509e-09 0
-4.7746509e-09 -4.7746509e-09 0
0 -4.7746509e-09 0
4.7746509e-09 -4.7746509e-09 0
-4.7746509e-09 -4.7746509e-09 0
4.7746509e-09 -4.7746509e-09 0
-4.7746509e-09 -4.7746509e-09 0
4.7746509e-09 -4.7746509e-09 0
0 -4.7746509e-09 0
-4.7746562e-09 -4.7746509e-09 0
4.7746562e-09 -4.7746509e-09 0
0 -4.7746509e-09 0
0 -4.7746509e-09 0
-4.7746562e-09 -4.7746509e-09 0
4.7746562e-09 -4.7746509e-09 0
0 -4.7746509e-09 0
-4.7746562e-09 -4.7746509e-09 0
4.7746562e-09 -4.7746509e-09 0
0 -4.7746509e-09 0
0 -4.7746509e-09 0
-4.7746562e-09 -4.7746509e-09 0
4.7746562e-09 -4.7746509e-09 0
0 -4.7746509e-09 0
0 -4.7746509e-09 0
-4.7746562e-09 -4.7746509e-09 0
4.3748849e-09 -4.7746509e-09 0
-9.3341635e-07 -4.7677311e-09 0
-3.7564798e-05 -2.2666163e-07 0
-0.0012372319 -1.8961424e-07 0
-0.0042235907 4.0184329e-07 0
0.0042235986 -1.5604968e-08 0
0.0012372555 -1.5641017e-08 0
3.7563474e-05 -8.2788901e-08 0
9.2873557e-07 4.7796478e-09 0
5.2759508e-09 4.7746509e-09 0
0 4.7746509e-09 0
-4.7746509e-09 4.7746509e-09 0