<?xml version="1.0" ?>

<VTKFile type="UnstructuredGrid" version="0.1" byte_order="BigEndian">

<UnstructuredGrid>

<Piece NumberOfPoints= " 2009 " NumberOfCells=" 2009 ">

<PointData Scalars="Pressure" Vectors="Velocity">

<DataArray type="Float32" Name="Pressure" format="ascii">

9.22708 20.2789 21.5665 13.9481 8.15414 10.8365 7.61767 7.61767 11.5876 11.5876 7.61767 7.61767 7.61767 7.51037 7.61767 7.61767 7.61767 7.61767 7.61767 10.7292 7.61767 7.61767 11.5876 11.5876 7.61767 7.61767 10.8365 7.61767 7.61767 11.5876 11.5876 7.61767 7.61767 11.5876 11.5876 7.61767 9.54897 22.9615 14.8065 13.9481 15.1284 21.8884 16.2014 17.8109 17.3817 6.00827 7.0812 6.00827 6.00827 7.51037 7.51037 6.00827 6.00827 6.00827 7.93955 6.00827 6.00827 6.00827 6.00827 6.00827 7.0812 6.00827 6.00827 7.51037 7.51037 6.00827 6.00827 7.0812 6.00827 6.00827 7.51037 7.51037 6.00827 6.00827 7.51037 7.51037 6.00827 6.22285 18.2401 14.4846 10.9438 20.0643 21.5665 15.4503 20.4935 19.7424 5.25722 9.54897 5.04264 5.04264 10.3 10.3 5.04264 5.04264 5.04264 8.15414 5.04264 5.04264 5.04264 5.04264 5.04264 9.54897 5.04264 5.04264 10.1927 10.1927 5.04264 5.04264 9.54897 5.04264 5.04264 10.1927 10.1927 5.04264 5.04264 10.1927 10.1927 5.04264 5.14993 21.1373 14.6992 12.2314 20.1716 12.2314 5.68639 4.39889 10.7292 8.58331 0 7.83225 7.83225 0 0 7.83225 7.83225 7.83225 0.965598 7.83225 7.83225 7.83225 7.83225 7.83225 0 7.83225 7.83225 0 0 7.83225 7.83225 0 7.83225 7.83225 0 0 7.83225 7.83225 0 0 7.83225 9.76356 15.5576 15.5576 17.0598 16.416 13.8408 13.197 10.6219 14.0554 0.643732 0 0.429154 0.429154 0 0 0.429154 0.429154 0.429154 7.0812 0.429154 0.429154 0.429154 0.429154 0.429154 0 0.429154 0.429154 0 0 0.429154 0.429154 0 0.429154 0.429154 0 0 0.429154 0.429154 0 0 0.429154 0.643732 9.22708 5.25722 6.11556 8.7979 17.8109 14.9138 15.6649 5.5791 0.429154 0 0 0 0 0 0 0 0 0 0 0 0 0 0 0 0 0 0 0 0 0 0 0 0 0 0 0 0 0 0 0 0 0 10.3 7.51037 11.8022 7.61767 6.00827 5.04264 7.83225 0.429154 0 0 0 0 0 0 0 0 0 0 0 0 0 0 0 0 0 0 0 0 0 0 0 0 0 0 0 0 0 0 0 0.429154 7.83225 5.04264 6.00827 7.61767 7.61767 6.00827 5.04264 7.83225 0.429154 0 0 0 0 0 0 0 0 0 0 0 0 0 0 0 0 0 0 0 0 0 0 0 0 0 0 0 0 0 0 0 0.429154 7.83225 5.04264 6.00827 7.61767 11.5876 7.51037 10.3 0 0 0 0 0 0 0 0 0 0 0 0 0 0 0 0 0 0 0 0 0 0 0 0 0 0 0 0 0 0 0 0 0 0 0 10.3 7.51037 11.5876 11.5876 7.51037 10.3 0 0 0 0 0 0 0 0 0 0 0 0 0 0 0 0 0 0 0 0 0 0 0 0 0 0 0 0 0 0 0 0 0 0 0 10.3 7.51037 11.5876 7.61767 6.00827 5.04264 7.83225 0.429154 0 0 0 0 0 0 0 0 0 0 0 0 0 0 0 0 0 0 0 0 0 0 0 0 0 0 0 0 0 0 0 0.429154 7.83225 5.04264 6.00827 7.61767 7.61767 6.00827 5.04264 7.83225 0.429154 0 0 0 0 0 0 0 0 0 0 0 0 0 0 0 0 0 0 0 0 0 0 0 0 0 0 0 0 0 0 0 0.429154 7.83225 5.04264 6.00827 7.61767 7.61767 6.00827 5.04264 7.83225 0.429154 0 0 0 0 0 0 0 0 0 0 0 0 0 0 0 0 0 0 0 0 0 0 0 0 0 0 0 0 0 0 0 0.429154 7.83225 5.04264 6.00827 7.61767 7.51037 7.93955 8.15414 0.965598 7.0812 0 0 0 0 0 0 0 0 0 0 0 0 0 0 0 0 0 0 0 0 0 0 0 0 0 0 0 0 0 0 0 7.0812 0.965598 8.15414 7.93955 7.51037 7.61767 6.00827 5.04264 7.83225 0.429154 0 0 0 0 0 0 0 0 0 0 0 0 0 0 0 0 0 0 0 0 0 0 0 0 0 0 0 0 0 0 0 0.429154 7.83225 5.04264 6.00827 7.61767 7.61767 6.00827 5.04264 7.83225 0.429154 0 0 0 0 0 0 0 0 0 0 0 0 0 0 0 0 0 0 0 0 0 0 0 0 0 0 0 0 0 0 0 0.429154 7.83225 5.04264 6.00827 7.61767 7.61767 6.00827 5.04264 7.83225 0.429154 0 0 0 0 0 0 0 0 0 0 0 0 0 0 0 0 0 0 0 0 0 0 0 0 0 0 0 0 0 0 0 0.429154 7.83225 5.04264 6.00827 7.61767 7.61767 6.00827 5.04264 7.83225 0.429154 0 0 0 0 0 0 0 0 0 0 0 0 0 0 0 0 0 0 0 0 0 0 0 0 0 0 0 0 0 0 0 0.429154 7.83225 5.04264 6.00827 7.61767 7.61767 6.00827 5.04264 7.83225 0.429154 0 0 0 0 0 0 0 0 0 0 0 0 0 0 0 0 0 0 0 0 0 0 0 0 0 0 0 0 0 0 0 0.429154 7.83225 5.04264 6.00827 7.61767 10.7292 7.0812 9.54897 0 0 0 0 0 0 0 0 0 0 0 0 0 0 0 0 0 0 0 0 0 0 0 0 0 0 0 0 0 0 0 0 0 0 0 9.54897 7.0812 10.7292 7.61767 6.00827 5.04264 7.83225 0.429154 0 0 0 0 0 0 0 0 0 0 0 0 0 0 0 0 0 0 0 0 0 0 0 0 0 0 0 0 0 0 0 0.429154 7.83225 5.04264 6.00827 7.61767 7.61767 6.00827 5.04264 7.83225 0.429154 0 0 0 0 0 0 0 0 0 0 0 0 0 0 0 0 0 0 0 0 0 0 0 0 0 0 0 0 0 0 0 0.429154 7.83225 5.04264 6.00827 7.61767 11.5876 7.51037 10.1927 0 0 0 0 0 0 0 0 0 0 0 0 0 0 0 0 0 0 0 0 0 0 0 0 0 0 0 0 0 0 0 0 0 0 0 10.1927 7.51037 11.5876 11.5876 7.51037 10.1927 0 0 0 0 0 0 0 0 0 0 0 0 0 0 0 0 0 0 0 0 0 0 0 0 0 0 0 0 0 0 0 0 0 0 0 10.1927 7.51037 11.5876 7.61767 6.00827 5.04264 7.83225 0.429154 0 0 0 0 0 0 0 0 0 0 0 0 0 0 0 0 0 0 0 0 0 0 0 0 0 0 0 0 0 0 0 0.429154 7.83225 5.04264 6.00827 7.61767 7.61767 6.00827 5.04264 7.83225 0.429154 0 0 0 0 0 0 0 0 0 0 0 0 0 0 0 0 0 0 0 0 0 0 0 0 0 0 0 0 0 0 0 0.429154 7.83225 5.04264 6.00827 7.61767 10.8365 7.0812 9.54897 0 0 0 0 0 0 0 0 0 0 0 0 0 0 0 0 0 0 0 0 0 0 0 0 0 0 0 0 0 0 0 0 0 0 0 9.54897 7.0812 10.8365 7.61767 6.00827 5.04264 7.83225 0.429154 0 0 0 0 0 0 0 0 0 0 0 0 0 0 0 0 0 0 0 0 0 0 0 0 0 0 0 0 0 0 0 0.429154 7.83225 5.04264 6.00827 7.61767 7.61767 6.00827 5.04264 7.83225 0.429154 0 0 0 0 0 0 0 0 0 0 0 0 0 0 0 0 0 0 0 0 0 0 0 0 0 0 0 0 0 0 0 0.429154 7.83225 5.04264 6.00827 7.61767 11.5876 7.51037 10.1927 0 0 0 0 0 0 0 0 0 0 0 0 0 0 0 0 0 0 0 0 0 0 0 0 0 0 0 0 0 0 0 0 0 0 0 10.1927 7.51037 11.5876 11.5876 7.51037 10.1927 0 0 0 0 0 0 0 0 0 0 0 0 0 0 0 0 0 0 0 0 0 0 0 0 0 0 0 0 0 0 0 0 0 0 0 10.1927 7.51037 11.5876 7.61767 6.00827 5.04264 7.83225 0.429154 0 0 0 0 0 0 0 0 0 0 0 0 0 0 0 0 0 0 0 0 0 0 0 0 0 0 0 0 0 0 0 0.429154 7.83225 5.04264 6.00827 7.61767 7.61767 6.00827 5.04264 7.83225 0.429154 0 0 0 0 0 0 0 0 0 0 0 0 0 0 0 0 0 0 0 0 0 0 0 0 0 0 0 0 0 0 0 0.429154 7.83225 5.04264 6.00827 7.61767 11.5876 7.51037 10.1927 0 0 0 0 0 0 0 0 0 0 0 0 0 0 0 0 0 0 0 0 0 0 0 0 0 0 0 0 0 0 0 0 0 0 0 10.1927 7.51037 11.5876 11.5876 7.51037 10.1927 0 0 0 0 0 0 0 0 0 0 0 0 0 0 0 0 0 0 0 0 0 0 0 0 0 0 0 0 0 0 0 0 0 0 0 10.1927 7.51037 11.5876 7.61767 6.00827 5.04264 7.83225 0.429154 0 0 0 0 0 0 0 0 0 0 0 0 0 0 0 0 0 0 0 0 0 0 0 0 0 0 0 0 0 0 0 0.429154 7.83225 5.04264 6.00827 7.61767 9.54897 6.22285 5.14993 9.76356 0.643732 0 0.429154 0.429154 0 0 0.429154 0.429154 0.429154 7.0812 0.429154 0.429154 0.429154 0.429154 0.429154 0 0.429154 0.429154 0 0 0.429154 0.429154 0 0.429154 0.429154 0 0 0.429154 0.429154 0 0 0.429154 0.643732 9.33438 5.14993 6.22285 8.9052 22.9615 18.2401 21.1373 15.5576 9.22708 0 7.83225 7.83225 0 0 7.83225 7.83225 7.83225 0.965598 7.83225 7.83225 7.83225 7.83225 7.83225 0 7.83225 7.83225 0 0 7.83225 7.83225 0 7.83225 7.83225 0 0 7.83225 7.83225 0 0 7.83225 9.33438 7.83225 20.6008 17.9182 22.5322 14.8065 14.4846 14.6992 15.5576 5.25722 10.3 5.04264 5.04264 10.3 10.3 5.04264 5.04264 5.04264 8.15414 5.04264 5.04264 5.04264 5.04264 5.04264 9.54897 5.04264 5.04264 10.1927 10.1927 5.04264 5.04264 9.54897 5.04264 5.04264 10.1927 10.1927 5.04264 5.04264 10.1927 10.1927 5.04264 5.14993 20.6008 14.8065 13.8408 17.1671 13.9481 10.9438 12.2314 17.0598 6.11556 7.51037 6.00827 6.00827 7.51037 7.51037 6.00827 6.00827 6.00827 7.93955 6.00827 6.00827 6.00827 6.00827 6.00827 7.0812 6.00827 6.00827 7.51037 7.51037 6.00827 6.00827 7.0812 6.00827 6.00827 7.51037 7.51037 6.00827 6.00827 7.51037 7.51037 6.00827 6.22285 17.9182 13.8408 10.9438 19.8497 15.1284 20.0643 20.1716 16.416 8.7979 11.8022 7.61767 7.61767 11.5876 11.5876 7.61767 7.61767 7.61767 7.51037 7.61767 7.61767 7.61767 7.61767 7.61767 10.7292 7.61767 7.61767 11.5876 11.5876 7.61767 7.61767 10.8365 7.61767 7.61767 11.5876 11.5876 7.61767 7.61767 11.5876 11.5876 7.61767 8.9052 22.5322 17.1671 19.8497 9.87085 0.1 0.1 0.1 0.1 0.1 0.1 0.1 0.1 0.1 0.1 0.1 0.1 0.1 0.1 0.1 0.1 0.1 0.1 0.1 0.1 0.1 0.1 0.1 0.1 0.1 0.1 0.1 0.1 0.1 0.1 0.1 0.1 0.1 0.1 0.1 0.1 0.1 0.1 0.1 0.1 0.1 0.1 0.1 0.1 0.1 0.1 0.1 0.1 0.1 0.1 0.1 0.1 0.1 0.1 0.1 0.1 0.1 0.1 0.1 0.1 0.1 0.1 0.1 0.1 0.1 0.1 0.1 0.1 0.1 0.1 0.1 0.1 0.1 0.1 0.1 0.1 0.1 0.1 0.1 0.1 0.1 0.1 0.1 0.1 0.1 0.1 0.1 0.1 0.1 0.1 0.1 0.1 0.1 0.1 0.1 0.1 0.1 0.1 0.1 0.1 0.1 0.1 0.1 0.1 0.1 0.1 0.1 0.1 0.1 0.1 0.1 0.1 0.1 0.1 0.1 0.1 0.1 0.1 0.1 0.1 0.1 0.1 0.1 0.1 0.1 0.1 0.1 0.1 0.1 0.1 0.1 0.1 0.1 0.1 0.1 0.1 0.1 0.1 0.1 0.1 0.1 0.1 0.1 0.1 0.1 0.1 0.1 0.1 0.1 0.1 0.1 0.1 0.1 0.1 0.1 0.1 0.1 0.1 0.1 0.1 0.1 0.1 0.1 0.1 0.1 0.1 0.1 0.1 0.1 0.1 0.1 0.1 0.1 0.1 0.1 0.1 0.1 0.1 0.1 0.1 0.1 0.1 0.1 0.1 0.1 0.1 0.1 0.1 0.1 0.1 0.1 0.1 0.1 0.1 0.1 0.1 0.1 0.1 0.1 0.1 0.1 0.1 0.1 0.1 0.1 0.1 0.1 0.1 0.1 0.1 0.1 0.1 0.1 0.1 0.1 0.1 0.1 0.1 0.1 0.1 0.1 0.1 0.1 0.1 0.1 0.1 0.1 0.1 0.1 0.1 0.1 0.1 0.1 0.1 0.1 0.1 0.1 0.1 0.1 0.1 0.1 0.1 0.1 0.1 0.1 0.1 0.1 0.1 0.1 0.1 0.1 0.1 0.1 0.1 0.1 0.1 0.1 0.1 0.1 0.1 0.1 0.1 0.1 0.1 0.1 0.1 0.1 0.1 0.1 0.1 0.1 0.1 0.1 0.1 0.1 0.1 0.1 0.1 0.1 0.1 0.1 0.1 0.1 0.1 0.1 0.1 0.1 0.1 0.1 0.1 0.1 0.1 0.1 0.1 0.1 0.1 0.1 0.1 0.1 0.1 0.1 0.1 0.1 0.1 0.1 0.1 0.1 0.1 0.1 0.1 0.1 0.1 0.1 0.1 0.1 0.1 0.1 0.1 0.1 0.1 0.1 0.1 0.1 0.1 0.1 0.1 0.1 0.1 
</DataArray>

<DataArray type="Float32" Name="Density" format="ascii">
1000.01 1000.02 1000.02 1000.02 1000.01 1000.01 1000.01 1000.01 1000.01 1000.01 1000.01 1000.01 1000.01 1000.01 1000.01 1000.01 1000.01 1000.01 1000.01 1000.01 1000.01 1000.01 1000.01 1000.01 1000.01 1000.01 1000.01 1000.01 1000.01 1000.01 1000.01 1000.01 1000.01 1000.01 1000.01 1000.01 1000.01 1000.03 1000.02 1000.02 1000.02 1000.02 1000.02 1000.02 1000.02 1000.01 1000.01 1000.01 1000.01 1000.01 1000.01 1000.01 1000.01 1000.01 1000.01 1000.01 1000.01 1000.01 1000.01 1000.01 1000.01 1000.01 1000.01 1000.01 1000.01 1000.01 1000.01 1000.01 1000.01 1000.01 1000.01 1000.01 1000.01 1000.01 1000.01 1000.01 1000.01 1000.01 1000.02 1000.02 1000.01 1000.02 1000.02 1000.02 1000.02 1000.02 1000.01 1000.01 1000.01 1000.01 1000.01 1000.01 1000.01 1000.01 1000.01 1000.01 1000.01 1000.01 1000.01 1000.01 1000.01 1000.01 1000.01 1000.01 1000.01 1000.01 1000.01 1000.01 1000.01 1000.01 1000.01 1000.01 1000.01 1000.01 1000.01 1000.01 1000.01 1000.01 1000.01 1000.02 1000.02 1000.01 1000.02 1000.01 1000.01 1000 1000.01 1000.01 1000 1000.01 1000.01 1000 1000 1000.01 1000.01 1000.01 1000 1000.01 1000.01 1000.01 1000.01 1000.01 1000 1000.01 1000.01 1000 1000 1000.01 1000.01 1000 1000.01 1000.01 1000 1000 1000.01 1000.01 1000 1000 1000.01 1000.01 1000.02 1000.02 1000.02 1000.02 1000.02 1000.01 1000.01 1000.02 1000 1000 1000 1000 1000 1000 1000 1000 1000 1000.01 1000 1000 1000 1000 1000 1000 1000 1000 1000 1000 1000 1000 1000 1000 1000 1000 1000 1000 1000 1000 1000 1000 1000 1000.01 1000.01 1000.01 1000.01 1000.02 1000.02 1000.02 1000.01 1000 1000 1000 1000 1000 1000 1000 1000 1000 1000 1000 1000 1000 1000 1000 1000 1000 1000 1000 1000 1000 1000 1000 1000 1000 1000 1000 1000 1000 1000 1000 1000 1000 1000 1000.01 1000.01 1000.01 1000.01 1000.01 1000.01 1000.01 1000 1000 1000 1000 1000 1000 1000 1000 1000 1000 1000 1000 1000 1000 1000 1000 1000 1000 1000 1000 1000 1000 1000 1000 1000 1000 1000 1000 1000 1000 1000 1000 1000 1000.01 1000.01 1000.01 1000.01 1000.01 1000.01 1000.01 1000.01 1000 1000 1000 1000 1000 1000 1000 1000 1000 1000 1000 1000 1000 1000 1000 1000 1000 1000 1000 1000 1000 1000 1000 1000 1000 1000 1000 1000 1000 1000 1000 1000 1000 1000.01 1000.01 1000.01 1000.01 1000.01 1000.01 1000.01 1000 1000 1000 1000 1000 1000 1000 1000 1000 1000 1000 1000 1000 1000 1000 1000 1000 1000 1000 1000 1000 1000 1000 1000 1000 1000 1000 1000 1000 1000 1000 1000 1000 1000 1000 1000.01 1000.01 1000.01 1000.01 1000.01 1000.01 1000 1000 1000 1000 1000 1000 1000 1000 1000 1000 1000 1000 1000 1000 1000 1000 1000 1000 1000 1000 1000 1000 1000 1000 1000 1000 1000 1000 1000 1000 1000 1000 1000 1000 1000 1000.01 1000.01 1000.01 1000.01 1000.01 1000.01 1000.01 1000 1000 1000 1000 1000 1000 1000 1000 1000 1000 1000 1000 1000 1000 1000 1000 1000 1000 1000 1000 1000 1000 1000 1000 1000 1000 1000 1000 1000 1000 1000 1000 1000 1000.01 1000.01 1000.01 1000.01 1000.01 1000.01 1000.01 1000.01 1000 1000 1000 1000 1000 1000 1000 1000 1000 1000 1000 1000 1000 1000 1000 1000 1000 1000 1000 1000 1000 1000 1000 1000 1000 1000 1000 1000 1000 1000 1000 1000 1000 1000.01 1000.01 1000.01 1000.01 1000.01 1000.01 1000.01 1000.01 1000 1000 1000 1000 1000 1000 1000 1000 1000 1000 1000 1000 1000 1000 1000 1000 1000 1000 1000 1000 1000 1000 1000 1000 1000 1000 1000 1000 1000 1000 1000 1000 1000 1000.01 1000.01 1000.01 1000.01 1000.01 1000.01 1000.01 1000 1000.01 1000 1000 1000 1000 1000 1000 1000 1000 1000 1000 1000 1000 1000 1000 1000 1000 1000 1000 1000 1000 1000 1000 1000 1000 1000 1000 1000 1000 1000 1000 1000 1000.01 1000 1000.01 1000.01 1000.01 1000.01 1000.01 1000.01 1000.01 1000 1000 1000 1000 1000 1000 1000 1000 1000 1000 1000 1000 1000 1000 1000 1000 1000 1000 1000 1000 1000 1000 1000 1000 1000 1000 1000 1000 1000 1000 1000 1000 1000 1000.01 1000.01 1000.01 1000.01 1000.01 1000.01 1000.01 1000.01 1000 1000 1000 1000 1000 1000 1000 1000 1000 1000 1000 1000 1000 1000 1000 1000 1000 1000 1000 1000 1000 1000 1000 1000 1000 1000 1000 1000 1000 1000 1000 1000 1000 1000.01 1000.01 1000.01 1000.01 1000.01 1000.01 1000.01 1000.01 1000 1000 1000 1000 1000 1000 1000 1000 1000 1000 1000 1000 1000 1000 1000 1000 1000 1000 1000 1000 1000 1000 1000 1000 1000 1000 1000 1000 1000 1000 1000 1000 1000 1000.01 1000.01 1000.01 1000.01 1000.01 1000.01 1000.01 1000.01 1000 1000 1000 1000 1000 1000 1000 1000 1000 1000 1000 1000 1000 1000 1000 1000 1000 1000 1000 1000 1000 1000 1000 1000 1000 1000 1000 1000 1000 1000 1000 1000 1000 1000.01 1000.01 1000.01 1000.01 1000.01 1000.01 1000.01 1000.01 1000 1000 1000 1000 1000 1000 1000 1000 1000 1000 1000 1000 1000 1000 1000 1000 1000 1000 1000 1000 1000 1000 1000 1000 1000 1000 1000 1000 1000 1000 1000 1000 1000 1000.01 1000.01 1000.01 1000.01 1000.01 1000.01 1000.01 1000 1000 1000 1000 1000 1000 1000 1000 1000 1000 1000 1000 1000 1000 1000 1000 1000 1000 1000 1000 1000 1000 1000 1000 1000 1000 1000 1000 1000 1000 1000 1000 1000 1000 1000 1000.01 1000.01 1000.01 1000.01 1000.01 1000.01 1000.01 1000 1000 1000 1000 1000 1000 1000 1000 1000 1000 1000 1000 1000 1000 1000 1000 1000 1000 1000 1000 1000 1000 1000 1000 1000 1000 1000 1000 1000 1000 1000 1000 1000 1000.01 1000.01 1000.01 1000.01 1000.01 1000.01 1000.01 1000.01 1000 1000 1000 1000 1000 1000 1000 1000 1000 1000 1000 1000 1000 1000 1000 1000 1000 1000 1000 1000 1000 1000 1000 1000 1000 1000 1000 1000 1000 1000 1000 1000 1000 1000.01 1000.01 1000.01 1000.01 1000.01 1000.01 1000.01 1000 1000 1000 1000 1000 1000 1000 1000 1000 1000 1000 1000 1000 1000 1000 1000 1000 1000 1000 1000 1000 1000 1000 1000 1000 1000 1000 1000 1000 1000 1000 1000 1000 1000 1000 1000.01 1000.01 1000.01 1000.01 1000.01 1000.01 1000 1000 1000 1000 1000 1000 1000 1000 1000 1000 1000 1000 1000 1000 1000 1000 1000 1000 1000 1000 1000 1000 1000 1000 1000 1000 1000 1000 1000 1000 1000 1000 1000 1000 1000 1000.01 1000.01 1000.01 1000.01 1000.01 1000.01 1000.01 1000 1000 1000 1000 1000 1000 1000 1000 1000 1000 1000 1000 1000 1000 1000 1000 1000 1000 1000 1000 1000 1000 1000 1000 1000 1000 1000 1000 1000 1000 1000 1000 1000 1000.01 1000.01 1000.01 1000.01 1000.01 1000.01 1000.01 1000.01 1000 1000 1000 1000 1000 1000 1000 1000 1000 1000 1000 1000 1000 1000 1000 1000 1000 1000 1000 1000 1000 1000 1000 1000 1000 1000 1000 1000 1000 1000 1000 1000 1000 1000.01 1000.01 1000.01 1000.01 1000.01 1000.01 1000.01 1000 1000 1000 1000 1000 1000 1000 1000 1000 1000 1000 1000 1000 1000 1000 1000 1000 1000 1000 1000 1000 1000 1000 1000 1000 1000 1000 1000 1000 1000 1000 1000 1000 1000 1000 1000.01 1000.01 1000.01 1000.01 1000.01 1000.01 1000.01 1000 1000 1000 1000 1000 1000 1000 1000 1000 1000 1000 1000 1000 1000 1000 1000 1000 1000 1000 1000 1000 1000 1000 1000 1000 1000 1000 1000 1000 1000 1000 1000 1000 1000.01 1000.01 1000.01 1000.01 1000.01 1000.01 1000.01 1000.01 1000 1000 1000 1000 1000 1000 1000 1000 1000 1000 1000 1000 1000 1000 1000 1000 1000 1000 1000 1000 1000 1000 1000 1000 1000 1000 1000 1000 1000 1000 1000 1000 1000 1000.01 1000.01 1000.01 1000.01 1000.01 1000.01 1000.01 1000 1000 1000 1000 1000 1000 1000 1000 1000 1000 1000 1000 1000 1000 1000 1000 1000 1000 1000 1000 1000 1000 1000 1000 1000 1000 1000 1000 1000 1000 1000 1000 1000 1000 1000 1000.01 1000.01 1000.01 1000.01 1000.01 1000.01 1000 1000 1000 1000 1000 1000 1000 1000 1000 1000 1000 1000 1000 1000 1000 1000 1000 1000 1000 1000 1000 1000 1000 1000 1000 1000 1000 1000 1000 1000 1000 1000 1000 1000 1000 1000.01 1000.01 1000.01 1000.01 1000.01 1000.01 1000.01 1000 1000 1000 1000 1000 1000 1000 1000 1000 1000 1000 1000 1000 1000 1000 1000 1000 1000 1000 1000 1000 1000 1000 1000 1000 1000 1000 1000 1000 1000 1000 1000 1000 1000.01 1000.01 1000.01 1000.01 1000.01 1000.01 1000.01 1000.01 1000 1000 1000 1000 1000 1000 1000 1000 1000 1000 1000 1000 1000 1000 1000 1000 1000 1000 1000 1000 1000 1000 1000 1000 1000 1000 1000 1000 1000 1000 1000 1000 1000 1000.01 1000.01 1000.01 1000.01 1000.01 1000.01 1000.01 1000 1000 1000 1000 1000 1000 1000 1000 1000 1000 1000 1000 1000 1000 1000 1000 1000 1000 1000 1000 1000 1000 1000 1000 1000 1000 1000 1000 1000 1000 1000 1000 1000 1000 1000 1000.01 1000.01 1000.01 1000.01 1000.01 1000.01 1000 1000 1000 1000 1000 1000 1000 1000 1000 1000 1000 1000 1000 1000 1000 1000 1000 1000 1000 1000 1000 1000 1000 1000 1000 1000 1000 1000 1000 1000 1000 1000 1000 1000 1000 1000.01 1000.01 1000.01 1000.01 1000.01 1000.01 1000.01 1000 1000 1000 1000 1000 1000 1000 1000 1000 1000 1000 1000 1000 1000 1000 1000 1000 1000 1000 1000 1000 1000 1000 1000 1000 1000 1000 1000 1000 1000 1000 1000 1000 1000.01 1000.01 1000.01 1000.01 1000.01 1000.01 1000.01 1000.01 1000 1000 1000 1000 1000 1000 1000 1000 1000 1000.01 1000 1000 1000 1000 1000 1000 1000 1000 1000 1000 1000 1000 1000 1000 1000 1000 1000 1000 1000 1000 1000 1000 1000 1000.01 1000.01 1000.01 1000.01 1000.03 1000.02 1000.02 1000.02 1000.01 1000 1000.01 1000.01 1000 1000 1000.01 1000.01 1000.01 1000 1000.01 1000.01 1000.01 1000.01 1000.01 1000 1000.01 1000.01 1000 1000 1000.01 1000.01 1000 1000.01 1000.01 1000 1000 1000.01 1000.01 1000 1000 1000.01 1000.01 1000.01 1000.02 1000.02 1000.03 1000.02 1000.02 1000.02 1000.02 1000.01 1000.01 1000.01 1000.01 1000.01 1000.01 1000.01 1000.01 1000.01 1000.01 1000.01 1000.01 1000.01 1000.01 1000.01 1000.01 1000.01 1000.01 1000.01 1000.01 1000.01 1000.01 1000.01 1000.01 1000.01 1000.01 1000.01 1000.01 1000.01 1000.01 1000.01 1000.01 1000.01 1000.02 1000.02 1000.02 1000.02 1000.02 1000.01 1000.01 1000.02 1000.01 1000.01 1000.01 1000.01 1000.01 1000.01 1000.01 1000.01 1000.01 1000.01 1000.01 1000.01 1000.01 1000.01 1000.01 1000.01 1000.01 1000.01 1000.01 1000.01 1000.01 1000.01 1000.01 1000.01 1000.01 1000.01 1000.01 1000.01 1000.01 1000.01 1000.01 1000.01 1000.01 1000.02 1000.02 1000.01 1000.02 1000.02 1000.02 1000.02 1000.02 1000.01 1000.01 1000.01 1000.01 1000.01 1000.01 1000.01 1000.01 1000.01 1000.01 1000.01 1000.01 1000.01 1000.01 1000.01 1000.01 1000.01 1000.01 1000.01 1000.01 1000.01 1000.01 1000.01 1000.01 1000.01 1000.01 1000.01 1000.01 1000.01 1000.01 1000.01 1000.01 1000.01 1000.03 1000.02 1000.02 1000.01 1000 1000 1000 1000 1000 1000 1000 1000 1000 1000 1000 1000 1000 1000 1000 1000 1000 1000 1000 1000 1000 1000 1000 1000 1000 1000 1000 1000 1000 1000 1000 1000 1000 1000 1000 1000 1000 1000 1000 1000 1000 1000 1000 1000 1000 1000 1000 1000 1000 1000 1000 1000 1000 1000 1000 1000 1000 1000 1000 1000 1000 1000 1000 1000 1000 1000 1000 1000 1000 1000 1000 1000 1000 1000 1000 1000 1000 1000 1000 1000 1000 1000 1000 1000 1000 1000 1000 1000 1000 1000 1000 1000 1000 1000 1000 1000 1000 1000 1000 1000 1000 1000 1000 1000 1000 1000 1000 1000 1000 1000 1000 1000 1000 1000 1000 1000 1000 1000 1000 1000 1000 1000 1000 1000 1000 1000 1000 1000 1000 1000 1000 1000 1000 1000 1000 1000 1000 1000 1000 1000 1000 1000 1000 1000 1000 1000 1000 1000 1000 1000 1000 1000 1000 1000 1000 1000 1000 1000 1000 1000 1000 1000 1000 1000 1000 1000 1000 1000 1000 1000 1000 1000 1000 1000 1000 1000 1000 1000 1000 1000 1000 1000 1000 1000 1000 1000 1000 1000 1000 1000 1000 1000 1000 1000 1000 1000 1000 1000 1000 1000 1000 1000 1000 1000 1000 1000 1000 1000 1000 1000 1000 1000 1000 1000 1000 1000 1000 1000 1000 1000 1000 1000 1000 1000 1000 1000 1000 1000 1000 1000 1000 1000 1000 1000 1000 1000 1000 1000 1000 1000 1000 1000 1000 1000 1000 1000 1000 1000 1000 1000 1000 1000 1000 1000 1000 1000 1000 1000 1000 1000 1000 1000 1000 1000 1000 1000 1000 1000 1000 1000 1000 1000 1000 1000 1000 1000 1000 1000 1000 1000 1000 1000 1000 1000 1000 1000 1000 1000 1000 1000 1000 1000 1000 1000 1000 1000 1000 1000 1000 1000 1000 1000 1000 1000 1000 1000 1000 1000 1000 1000 1000 1000 1000 1000 1000 1000 1000 1000 1000 1000 1000 1000 1000 1000 1000 1000 1000 1000 
</DataArray>
<DataArray type="Float32" Name="Velocity" NumberOfComponents="3" format="ascii">
0.0043125241 0.0061530545 0
0.00052401499 0.0058135493 0
-5.0588082e-05 0.0056281132 0
0.00011849696 0.0048810965 0
1.2168679e-05 0.0041257008 0
1.0536297e-05 0.0029062587 0
2.9811616e-07 0.0041384227 0
8.888257e-07 0.0041384203 0
-2.1836968e-06 0.0029120066 0
1.7129772e-06 0.0029104932 0
-8.7669673e-07 0.0041384208 0
9.5532315e-08 0.0041384213 0
3.3616521e-07 0.0041384175 0
2.7831085e-10 0.005058466 0
6.5342886e-07 0.0041384199 0
-3.3044384e-07 0.0041384213 0
-4.1540062e-08 0.0041384213 0
-7.2886877e-07 0.0041384259 0
1.1401124e-06 0.0041384213 0
-7.5318047e-07 0.0029061278 0
9.75284e-08 0.0041384208 0
4.3311985e-07 0.004138425 0
-2.108955e-06 0.0029025727 0
2.0643311e-06 0.0029025732 0
-5.1974502e-07 0.0041384213 0
7.9049201e-08 0.0041384203 0
2.6943783e-15 0.0029061227 0
-7.9049201e-08 0.0041384203 0
5.1974502e-07 0.0041384213 0
-2.0643456e-06 0.0029025732 0
2.1138555e-06 0.0029025727 0
-5.7089414e-07 0.0041384222 0
5.7330504e-07 0.0041384222 0
-1.423781e-06 0.0029025725 0
1.9695706e-06 0.0029025695 0
-4.373765e-06 0.0041384208 0
-2.4699346e-05 0.004135611 0
-0.00018733884 0.0028977194 0
-0.00078220188 0.0041423859 0
-0.00045049054 0.0039221207 0
-0.0045927861 0.0043881647 0
0.0040492956 0.0010886305 0
0.00087448262 0.0011904077 0
0.00028452653 0.00091289124 0
0.00022070807 0.0010269647 0
3.0615931e-05 0.0011680884 0
-6.9418519e-08 0.00086747756 0
2.2983789e-07 0.0011702717 0
-1.139785e-07 0.0011702748 0
-7.4396354e-07 0.0010528937 0
2.7136824e-07 0.0010527117 0
4.2695262e-08 0.0011702806 0
1.540483e-06 0.0011703152 0
1.6690069e-07 0.0011703137 0
-8.5453735e-07 0.0014069485 0
-5.0648094e-07 0.0011703143 0
-1.6799251e-07 0.0011703152 0
-1.5208265e-08 0.0011703152 0
-1.5353464e-06 0.0011703166 0
4.5599279e-07 0.0011702728 0
-3.0074179e-09 0.00086753111 0
1.9533079e-06 0.0011702728 0
-2.1048061e-06 0.0011702742 0
-9.2092995e-07 0.001052859 0
9.1584337e-07 0.001052859 0
2.0889013e-06 0.001170274 0
-1.9749616e-06 0.0011702727 0
6.1845636e-15 0.00086748501 0
1.9749616e-06 0.0011702727 0
-2.0889013e-06 0.001170274 0
-9.1584337e-07 0.001052859 0
9.1947311e-07 0.0010528585 0
2.0971909e-06 0.0011702747 0
-2.0769287e-06 0.0011702761 0
-9.0451181e-07 0.0010528577 0
9.6868052e-07 0.0010528569 0
-3.1626806e-07 0.001170279 0
-2.8529008e-05 0.0011681342 0
-0.00024154602 0.00094053039 0
-0.00044313577 0.00067216286 0
-0.00079306867 0.00079599157 0
-0.0038161024 0.00041063468 0
0.0038117531 0.00043810048 0
0.00080085476 0.00044112076 0
0.00052969216 0.00024850469 0
0.0003287211 0.0001572601 0
1.9307405e-05 0.00014042092 0
5.3710169e-06 0.00015243416 0
5.561787e-06 0.00014074858 0
2.9872933e-06 0.00014059876 0
3.0452195e-06 0.00016041442 0
1.8769534e-06 0.00016047413 0
2.6682731e-06 0.00014051754 0
1.0458705e-06 0.00014030338 0
-5.2280967e-07 0.00014027275 0
3.5232063e-07 0.00017896574 0
2.2413503e-06 0.00014029251 0
-2.022322e-07 0.00014030338 0
6.7948669e-08 0.00014030338 0
4.1088205e-07 0.00014030344 0
1.5515154e-07 0.00014034974 0
3.8187116e-07 0.0001532406 0
-7.2764192e-07 0.00014034723 0
-6.9167555e-07 0.00014038867 0
-2.9325238e-07 0.00016028262 0
-3.512196e-08 0.00016026531 0
5.1869569e-07 0.00014040559 0
1.5784947e-06 0.0001403481 0
-1.9718671e-15 0.00015329011 0
-1.5784947e-06 0.0001403481 0
-5.1869569e-07 0.00014040559 0
3.512196e-08 0.00016026531 0
-2.8855188e-06 0.00016019681 0
-2.5373899e-06 0.00014047472 0
-3.5503035e-06 0.00014062053 0
-3.918849e-06 0.00016005091 0
-2.3156842e-06 0.00015998262 0
-4.5652018e-06 0.0001406891 0
-2.0909436e-05 0.00014136086 0
-0.0003244371 0.00017406016 0
-0.00038246089 0.00036254348 0
-0.00062260666 0.00047604053 0
-0.0039786561 0.00063645438 0
0.0041984324 0.00030162022 0
0.00095868186 0.00022073397 0
0.00037462622 0.00010085812 0
0.00014552662 5.189926e-05 0
2.4502418e-05 0.00011075517 0
3.9217134e-06 9.1854808e-06 0
1.5614929e-06 0.00011058384 0
1.4285978e-06 0.000110568 0
8.1074512e-07 9.5367759e-06 0
-8.7866039e-07 9.5381838e-06 0
-3.0493363e-10 0.0001105643 0
-1.2714656e-07 0.00011056458 0
-7.2620139e-07 0.00011054702 0
2.2636431e-07 9.2565373e-05 0
3.8582453e-07 0.00011054996 0
-3.5309552e-07 0.0001105646 0
-4.9924074e-07 0.00011056461 0
2.1374404e-07 0.00011056369 0
5.4505011e-07 0.00011056184 0
6.3790407e-07 9.2358105e-06 0
4.4651071e-07 0.00011056817 0
3.9974884e-07 0.00011056514 0
5.5537527e-07 9.5075493e-06 0
-5.5604147e-07 9.5075829e-06 0
-4.0385677e-07 0.0001105651 0
3.5965805e-08 0.00011056526 0
-2.7212009e-15 9.2454065e-06 0
-3.5965805e-08 0.00011056526 0
4.0385677e-07 0.0001105651 0
5.560409e-07 9.5075829e-06 0
-5.555716e-07 9.507482e-06 0
1.261473e-07 0.00011056488 0
-1.2422846e-07 0.00011056508 0
5.5201622e-07 9.5072692e-06 0
-5.7351881e-06 9.4733014e-06 0
-7.1546619e-06 0.00011059766 0
-2.4694653e-05 0.0001091829 0
-0.00022248615 9.2532748e-05 0
-0.00010034044 0.00031582793 0
-0.0010983195 0.00022244298 0
-0.0041502845 0.00028314875 0
0.0041783853 0.00029982178 0
0.0010637173 0.000171015 0
0.00022161695 0.00016933735 0
0.00019208122 4.4786011e-05 0
1.4383199e-05 7.5991757e-06 0
3.6665078e-08 2.2115227e-08 0
-3.6130473e-08 8.245469e-06 0
3.4648224e-08 8.2454462e-06 0
-5.1485926e-13 2.2356849e-08 0
8.4804033e-13 2.2358138e-08 0
-3.4720784e-08 8.2454426e-06 0
4.4207162e-09 8.2454426e-06 0
-1.1530869e-07 8.2453698e-06 0
-3.3636776e-12 8.0133366e-05 0
1.1517535e-07 8.2453744e-06 0
-4.2164849e-09 8.2454444e-06 0
3.5424151e-08 8.2454426e-06 0
-3.5953189e-08 8.2454435e-06 0
3.4695589e-08 8.2454399e-06 0
-2.7467587e-13 2.216448e-08 0
-3.5676663e-08 8.2454517e-06 0
3.4994919e-08 8.245448e-06 0
-1.0262884e-12 2.2336842e-08 0
1.0262949e-12 2.2336934e-08 0
-3.4999815e-08 8.2454435e-06 0
3.5276919e-08 8.2454453e-06 0
0 2.2174209e-08 0
-3.5276919e-08 8.2454453e-06 0
3.4999815e-08 8.2454435e-06 0
-1.0262949e-12 2.2336934e-08 0
1.0262897e-12 2.2336879e-08 0
-3.5215315e-08 8.2454435e-06 0
3.5215315e-08 8.2454444e-06 0
-1.0262744e-12 2.2336691e-08 0
2.6828687e-12 2.2308077e-08 0
-4.6562285e-08 8.2454653e-06 0
-7.7857312e-06 8.6645214e-06 0
-0.00010938496 2.7162272e-05 0
-0.00014073243 2.3660537e-05 0
-0.0011674296 4.4472941e-05 0
-0.0041249474 8.3169063e-05 0
0.0029365078 0.0001012968 0
0.00103045 8.9065812e-05 0
0.00019334433 8.2126069e-05 0
1.5619456e-05 5.799983e-05 0
4.4010476e-06 8.0828806e-07 0
1.669215e-08 -5.0927138e-14 0
-4.7746509e-09 2.4191648e-08 0
4.7746509e-09 2.4191635e-08 0
0 0 0
0 0 0
-4.7746509e-09 2.4191635e-08 0
4.7746509e-09 2.4191632e-08 0
-4.7739004e-09 2.4191465e-08 0
0 3.2943165e-06 0
4.7739004e-09 2.4191465e-08 0
-4.7746509e-09 2.4191632e-08 0
4.7746509e-09 2.4191632e-08 0
-4.7746509e-09 2.4191632e-08 0
4.7746509e-09 2.4191639e-08 0
0 0 0
-4.7746562e-09 2.4191641e-08 0
4.7746562e-09 2.4191635e-08 0
0 0 0
0 0 0
-4.7746562e-09 2.4191635e-08 0
4.7746562e-09 2.4191635e-08 0
0 0 0
-4.7746562e-09 2.4191635e-08 0
4.7746562e-09 2.4191635e-08 0
0 0 0
0 0 0
-4.7746562e-09 2.4191635e-08 0
4.7746562e-09 2.4191635e-08 0
0 0 0
0 0 0
-4.7782045e-09 2.4191648e-08 0
-1.2778185e-08 2.9442205e-08 0
-9.6305112e-06 4.2651686e-06 0
-0.0001600508 5.5705759e-06 0
-0.00105254 3.4672019e-07 0
-0.0029107009 1.2196119e-05 0
0.0041384441 2.3904372e-06 0
0.0011702148 1.6420481e-06 0
0.00014086552 8.5695565e-06 0
0.00011060746 3.583491e-06 0
8.2508204e-06 -5.5249392e-09 0
2.4192033e-08 -4.7746509e-09 0
-4.7746509e-09 -4.7746509e-09 0
4.7746509e-09 -4.7746509e-09 0
0 -4.7746509e-09 0
0 -4.7746509e-09 0
-4.7746509e-09 -4.7746509e-09 0
4.7746509e-09 -4.7746509e-09 0
-4.7746509e-09 -4.7746509e-09 0
0 -1.7114297e-09 0
4.7746509e-09 -4.7746509e-09 0
-4.7746509e-09 -4.7746509e-09 0
4.7746509e-09 -4.7746509e-09 0
-4.7746509e-09 -4.7746509e-09 0
4.7746509e-09 -4.7746509e-09 0
0 -4.7746509e-09 0
-4.7746562e-09 -4.7746509e-09 0
4.7746562e-09 -4.7746509e-09 0
0 -4.7746509e-09 0
0 -4.7746509e-09 0
-4.7746562e-09 -4.7746509e-09 0
4.7746562e-09 -4.7746509e-09 0
0 -4.7746509e-09 0
-4.7746562e-09 -4.7746509e-09 0
4.7746562e-09 -4.7746509e-09 0
0 -4.7746509e-09 0
0 -4.7746509e-09 0
-4.7746562e-09 -4.7746509e-09 0
4.7746562e-09 -4.7746509e-09 0
0 -4.7746509e-09 0
0 -4.7746509e-09 0
-2.8911366e-08 -4.7746509e-09 0
-8.2360248e-06 -3.6146325e-08 0
-0.00011060293 1.6753777e-06 0
-0.00014078642 5.756573e-06 0
-0.0011702519 -6.7132703e-08 0
-0.0041384157 2.9459204e-07 0
0.0041384199 8.4560099e-07 0
0.0011702755 1.2099374e-06 0
0.00014065317 2.0916393e-06 0
0.00011057734 2.6601929e-06 0
8.2454508e-06 3.4499145e-08 0
2.4191639e-08 4.7746509e-09 0
-4.7746509e-09 4.7746509e-09 0
4.7746509e-09 4.7746509e-09 0
0 4.7746509e-09 0
0 4.7746509e-09 0
-4.7746509e-09 4.7746509e-09 0
4.7746509e-09 4.7746509e-09 0
-4.7746509e-09 4.7746509e-09 0
0 4.7746509e-09 0
4.7746509e-09 4.7746509e-09 0
-4.7746509e-09 4.7746509e-09 0
4.7746509e-09 4.7746509e-09 0
-4.7746509e-09 4.7746509e-09 0
4.7746509e-09 4.7746509e-09 0
0 4.7746509e-09 0
-4.7746562e-09 4.7746509e-09 0
4.7746562e-09 4.7746509e-09 0
0 4.7746509e-09 0
0 4.7746509e-09 0
-4.7746562e-09 4.7746509e-09 0
4.7746562e-09 4.7746509e-09 0
0 4.7746509e-09 0
-4.7746562e-09 4.7746509e-09 0
4.7746562e-09 4.7746509e-09 0
0 4.7746509e-09 0
0 4.7746509e-09 0
-4.7746562e-09 4.7746509e-09 0
4.7746562e-09 4.7746509e-09 0
0 4.7746509e-09 0
0 4.7746509e-09 0
-2.8911348e-08 4.7746509e-09 0
-8.2360039e-06 3.467246e-08 0
-0.00011057421 2.462062e-06 0
-0.00014065717 2.5133363e-06 0
-0.0011702488 6.864588e-07 0
-0.0041384138 8.9722789e-07 0