<?xml version="1.0" ?>

<VTKFile type="UnstructuredGrid" version="0.1" byte_order="BigEndian">

<UnstructuredGrid>

<Piece NumberOfPoints= " 2009 " NumberOfCells=" 2009 ">

<PointData Scalars="Pressure" Vectors="Velocity">

<DataArray type="Float32" Name="Pressure" format="ascii">

21.3519 17.5963 25.0003 7.61767 9.44167 9.54897 9.33438 9.33438 9.97815 9.97815 9.33438 9.33438 9.33438 7.51037 9.33438 9.33438 9.33438 9.33438 9.33438 9.54897 9.33438 9.33438 9.97815 9.97815 9.33438 9.33438 9.54897 9.33438 9.33438 9.97815 9.97815 9.33438 9.33438 9.97815 9.97815 9.33438 9.33438 11.1584 31.9753 21.3519 23.9272 24.2491 17.8109 21.8884 4.82805 6.33015 9.76356 6.43744 6.43744 10.3 10.3 6.43744 6.43744 6.43744 5.14993 6.43744 6.43744 6.43744 6.43744 6.43744 9.76356 6.43744 6.43744 10.3 10.3 6.43744 6.43744 9.76356 6.43744 6.43744 10.3 10.3 6.43744 6.43744 10.3 10.3 6.43744 6.43744 11.1584 23.498 16.0941 21.5665 24.6784 16.7379 25.0003 7.29579 9.22708 3.54056 8.9052 8.9052 3.54056 3.54056 8.9052 8.9052 8.9052 6.11556 8.9052 8.9052 8.9052 8.9052 8.9052 3.54056 8.9052 8.9052 3.54056 3.54056 8.9052 8.9052 3.54056 8.9052 8.9052 3.54056 3.54056 8.9052 8.9052 3.54056 3.54056 8.9052 8.9052 6.33015 33.2631 22.8542 32.7265 19.2058 16.0941 18.9912 6.54473 1.39476 0 1.50204 1.50204 0 0 1.50204 1.50204 1.50204 6.86661 1.50204 1.50204 1.50204 1.50204 1.50204 0 1.50204 1.50204 0 0 1.50204 1.50204 0 1.50204 1.50204 0 0 1.50204 1.50204 0 0 1.50204 1.50204 1.9312 12.1241 8.04684 13.3043 14.8065 11.5876 15.2357 2.03849 0 0 0 0 0 0 0 0 0 0 0 0 0 0 0 0 0 0 0 0 0 0 0 0 0 0 0 0 0 0 0 0 0 1.39476 9.11979 6.33015 9.33438 10.1927 10.4073 3.54056 0 0 0 0 0 0 0 0 0 0 0 0 0 0 0 0 0 0 0 0 0 0 0 0 0 0 0 0 0 0 0 0 0 0 0 3.54056 10.3 9.97815 9.33438 6.43744 8.9052 1.50204 0 0 0 0 0 0 0 0 0 0 0 0 0 0 0 0 0 0 0 0 0 0 0 0 0 0 0 0 0 0 0 0 0 1.50204 8.9052 6.43744 9.33438 9.33438 6.43744 8.9052 1.50204 0 0 0 0 0 0 0 0 0 0 0 0 0 0 0 0 0 0 0 0 0 0 0 0 0 0 0 0 0 0 0 0 0 1.50204 8.9052 6.43744 9.33438 9.97815 10.3 3.54056 0 0 0 0 0 0 0 0 0 0 0 0 0 0 0 0 0 0 0 0 0 0 0 0 0 0 0 0 0 0 0 0 0 0 0 3.54056 10.3 9.97815 9.97815 10.3 3.54056 0 0 0 0 0 0 0 0 0 0 0 0 0 0 0 0 0 0 0 0 0 0 0 0 0 0 0 0 0 0 0 0 0 0 0 3.54056 10.3 9.97815 9.33438 6.43744 8.9052 1.50204 0 0 0 0 0 0 0 0 0 0 0 0 0 0 0 0 0 0 0 0 0 0 0 0 0 0 0 0 0 0 0 0 0 1.50204 8.9052 6.43744 9.33438 9.33438 6.43744 8.9052 1.50204 0 0 0 0 0 0 0 0 0 0 0 0 0 0 0 0 0 0 0 0 0 0 0 0 0 0 0 0 0 0 0 0 0 1.50204 8.9052 6.43744 9.33438 9.33438 6.43744 8.9052 1.50204 0 0 0 0 0 0 0 0 0 0 0 0 0 0 0 0 0 0 0 0 0 0 0 0 0 0 0 0 0 0 0 0 0 1.50204 8.9052 6.43744 9.33438 7.51037 5.14993 6.11556 6.86661 0 0 0 0 0 0 0 0 0 0 0 0 0 0 0 0 0 0 0 0 0 0 0 0 0 0 0 0 0 0 0 0 0 6.86661 6.11556 5.14993 7.51037 9.33438 6.43744 8.9052 1.50204 0 0 0 0 0 0 0 0 0 0 0 0 0 0 0 0 0 0 0 0 0 0 0 0 0 0 0 0 0 0 0 0 0 1.50204 8.9052 6.43744 9.33438 9.33438 6.43744 8.9052 1.50204 0 0 0 0 0 0 0 0 0 0 0 0 0 0 0 0 0 0 0 0 0 0 0 0 0 0 0 0 0 0 0 0 0 1.50204 8.9052 6.43744 9.33438 9.33438 6.43744 8.9052 1.50204 0 0 0 0 0 0 0 0 0 0 0 0 0 0 0 0 0 0 0 0 0 0 0 0 0 0 0 0 0 0 0 0 0 1.50204 8.9052 6.43744 9.33438 9.33438 6.43744 8.9052 1.50204 0 0 0 0 0 0 0 0 0 0 0 0 0 0 0 0 0 0 0 0 0 0 0 0 0 0 0 0 0 0 0 0 0 1.50204 8.9052 6.43744 9.33438 9.33438 6.43744 8.9052 1.50204 0 0 0 0 0 0 0 0 0 0 0 0 0 0 0 0 0 0 0 0 0 0 0 0 0 0 0 0 0 0 0 0 0 1.50204 8.9052 6.43744 9.33438 9.54897 9.76356 3.54056 0 0 0 0 0 0 0 0 0 0 0 0 0 0 0 0 0 0 0 0 0 0 0 0 0 0 0 0 0 0 0 0 0 0 0 3.54056 9.76356 9.54897 9.33438 6.43744 8.9052 1.50204 0 0 0 0 0 0 0 0 0 0 0 0 0 0 0 0 0 0 0 0 0 0 0 0 0 0 0 0 0 0 0 0 0 1.50204 8.9052 6.43744 9.33438 9.33438 6.43744 8.9052 1.50204 0 0 0 0 0 0 0 0 0 0 0 0 0 0 0 0 0 0 0 0 0 0 0 0 0 0 0 0 0 0 0 0 0 1.50204 8.9052 6.43744 9.33438 9.97815 10.3 3.54056 0 0 0 0 0 0 0 0 0 0 0 0 0 0 0 0 0 0 0 0 0 0 0 0 0 0 0 0 0 0 0 0 0 0 0 3.54056 10.3 9.97815 9.97815 10.3 3.54056 0 0 0 0 0 0 0 0 0 0 0 0 0 0 0 0 0 0 0 0 0 0 0 0 0 0 0 0 0 0 0 0 0 0 0 3.54056 10.3 9.97815 9.33438 6.43744 8.9052 1.50204 0 0 0 0 0 0 0 0 0 0 0 0 0 0 0 0 0 0 0 0 0 0 0 0 0 0 0 0 0 0 0 0 0 1.50204 8.9052 6.43744 9.33438 9.33438 6.43744 8.9052 1.50204 0 0 0 0 0 0 0 0 0 0 0 0 0 0 0 0 0 0 0 0 0 0 0 0 0 0 0 0 0 0 0 0 0 1.50204 8.9052 6.43744 9.33438 9.54897 9.76356 3.54056 0 0 0 0 0 0 0 0 0 0 0 0 0 0 0 0 0 0 0 0 0 0 0 0 0 0 0 0 0 0 0 0 0 0 0 3.54056 9.76356 9.54897 9.33438 6.43744 8.9052 1.50204 0 0 0 0 0 0 0 0 0 0 0 0 0 0 0 0 0 0 0 0 0 0 0 0 0 0 0 0 0 0 0 0 0 1.50204 8.9052 6.43744 9.33438 9.33438 6.43744 8.9052 1.50204 0 0 0 0 0 0 0 0 0 0 0 0 0 0 0 0 0 0 0 0 0 0 0 0 0 0 0 0 0 0 0 0 0 1.50204 8.9052 6.43744 9.33438 9.97815 10.3 3.54056 0 0 0 0 0 0 0 0 0 0 0 0 0 0 0 0 0 0 0 0 0 0 0 0 0 0 0 0 0 0 0 0 0 0 0 3.54056 10.3 9.97815 9.97815 10.3 3.54056 0 0 0 0 0 0 0 0 0 0 0 0 0 0 0 0 0 0 0 0 0 0 0 0 0 0 0 0 0 0 0 0 0 0 0 3.54056 10.3 9.97815 9.33438 6.43744 8.9052 1.50204 0 0 0 0 0 0 0 0 0 0 0 0 0 0 0 0 0 0 0 0 0 0 0 0 0 0 0 0 0 0 0 0 0 1.50204 8.9052 6.43744 9.33438 9.33438 6.43744 8.9052 1.50204 0 0 0 0 0 0 0 0 0 0 0 0 0 0 0 0 0 0 0 0 0 0 0 0 0 0 0 0 0 0 0 0 0 1.50204 8.9052 6.43744 9.33438 9.97815 10.3 3.54056 0 0 0 0 0 0 0 0 0 0 0 0 0 0 0 0 0 0 0 0 0 0 0 0 0 0 0 0 0 0 0 0 0 0 0 3.54056 10.3 9.97815 9.97815 10.3 3.54056 0 0 0 0 0 0 0 0 0 0 0 0 0 0 0 0 0 0 0 0 0 0 0 0 0 0 0 0 0 0 0 0 0 0 0 3.54056 10.3 9.97815 9.33438 6.43744 8.9052 1.50204 0 0 0 0 0 0 0 0 0 0 0 0 0 0 0 0 0 0 0 0 0 0 0 0 0 0 0 0 0 0 0 0 0 1.50204 8.9052 6.43744 9.33438 9.33438 6.43744 8.9052 1.50204 0 0 0 0 0 0 0 0 0 0 0 0 0 0 0 0 0 0 0 0 0 0 0 0 0 0 0 0 0 0 0 0 0 1.50204 8.9052 6.43744 9.33438 11.1584 11.1584 6.33015 1.9312 1.39476 0 1.50204 1.50204 0 0 1.50204 1.50204 1.50204 6.86661 1.50204 1.50204 1.50204 1.50204 1.50204 0 1.50204 1.50204 0 0 1.50204 1.50204 0 1.50204 1.50204 0 0 1.50204 1.50204 0 0 1.50204 1.50204 0.321865 6.65203 11.2657 11.1584 31.9753 23.498 33.2631 12.1241 9.11979 3.54056 8.9052 8.9052 3.54056 3.54056 8.9052 8.9052 8.9052 6.11556 8.9052 8.9052 8.9052 8.9052 8.9052 3.54056 8.9052 8.9052 3.54056 3.54056 8.9052 8.9052 3.54056 8.9052 8.9052 3.54056 3.54056 8.9052 8.9052 3.54056 3.54056 8.9052 8.9052 6.65203 32.2973 23.1761 30.7949 21.3519 16.0941 22.8542 8.04684 6.33015 10.3 6.43744 6.43744 10.3 10.3 6.43744 6.43744 6.43744 5.14993 6.43744 6.43744 6.43744 6.43744 6.43744 9.76356 6.43744 6.43744 10.3 10.3 6.43744 6.43744 9.76356 6.43744 6.43744 10.3 10.3 6.43744 6.43744 10.3 10.3 6.43744 6.43744 11.2657 23.1761 15.6649 21.8884 23.9272 21.5665 32.7265 13.3043 9.33438 9.97815 9.33438 9.33438 9.97815 9.97815 9.33438 9.33438 9.33438 7.51037 9.33438 9.33438 9.33438 9.33438 9.33438 9.54897 9.33438 9.33438 9.97815 9.97815 9.33438 9.33438 9.54897 9.33438 9.33438 9.97815 9.97815 9.33438 9.33438 9.97815 9.97815 9.33438 9.33438 11.1584 30.7949 21.8884 22.6396 0.1 0.1 0.1 0.1 0.1 0.1 0.1 0.1 0.1 0.1 0.1 0.1 0.1 0.1 0.1 0.1 0.1 0.1 0.1 0.1 0.1 0.1 0.1 0.1 0.1 0.1 0.1 0.1 0.1 0.1 0.1 0.1 0.1 0.1 0.1 0.1 0.1 0.1 0.1 0.1 0.1 0.1 0.1 0.1 0.1 0.1 0.1 0.1 0.1 0.1 0.1 0.1 0.1 0.1 0.1 0.1 0.1 0.1 0.1 0.1 0.1 0.1 0.1 0.1 0.1 0.1 0.1 0.1 0.1 0.1 0.1 0.1 0.1 0.1 0.1 0.1 0.1 0.1 0.1 0.1 0.1 0.1 0.1 0.1 0.1 0.1 0.1 0.1 0.1 0.1 0.1 0.1 0.1 0.1 0.1 0.1 0.1 0.1 0.1 0.1 0.1 0.1 0.1 0.1 0.1 0.1 0.1 0.1 0.1 0.1 0.1 0.1 0.1 0.1 0.1 0.1 0.1 0.1 0.1 0.1 0.1 0.1 0.1 0.1 0.1 0.1 0.1 0.1 0.1 0.1 0.1 0.1 0.1 0.1 0.1 0.1 0.1 0.1 0.1 0.1 0.1 0.1 0.1 0.1 0.1 0.1 0.1 0.1 0.1 0.1 0.1 0.1 0.1 0.1 0.1 0.1 0.1 0.1 0.1 0.1 0.1 0.1 0.1 0.1 0.1 0.1 0.1 0.1 0.1 0.1 0.1 0.1 0.1 0.1 0.1 0.1 0.1 0.1 0.1 0.1 0.1 0.1 0.1 0.1 0.1 0.1 0.1 0.1 0.1 0.1 0.1 0.1 0.1 0.1 0.1 0.1 0.1 0.1 0.1 0.1 0.1 0.1 0.1 0.1 0.1 0.1 0.1 0.1 0.1 0.1 0.1 0.1 0.1 0.1 0.1 0.1 0.1 0.1 0.1 0.1 0.1 0.1 0.1 0.1 0.1 0.1 0.1 0.1 0.1 0.1 0.1 0.1 0.1 0.1 0.1 0.1 0.1 0.1 0.1 0.1 0.1 0.1 0.1 0.1 0.1 0.1 0.1 0.1 0.1 0.1 0.1 0.1 0.1 0.1 0.1 0.1 0.1 0.1 0.1 0.1 0.1 0.1 0.1 0.1 0.1 0.1 0.1 0.1 0.1 0.1 0.1 0.1 0.1 0.1 0.1 0.1 0.1 0.1 0.1 0.1 0.1 0.1 0.1 0.1 0.1 0.1 0.1 0.1 0.1 0.1 0.1 0.1 0.1 0.1 0.1 0.1 0.1 0.1 0.1 0.1 0.1 0.1 0.1 0.1 0.1 0.1 0.1 0.1 0.1 0.1 0.1 0.1 0.1 0.1 0.1 0.1 0.1 0.1 0.1 0.1 0.1 0.1 0.1 0.1 0.1 0.1 0.1 0.1 
</DataArray>

<DataArray type="Float32" Name="Density" format="ascii">
1000.02 1000.02 1000.03 1000.01 1000.01 1000.01 1000.01 1000.01 1000.01 1000.01 1000.01 1000.01 1000.01 1000.01 1000.01 1000.01 1000.01 1000.01 1000.01 1000.01 1000.01 1000.01 1000.01 1000.01 1000.01 1000.01 1000.01 1000.01 1000.01 1000.01 1000.01 1000.01 1000.01 1000.01 1000.01 1000.01 1000.01 1000.01 1000.04 1000.02 1000.03 1000.03 1000.02 1000.02 1000.01 1000.01 1000.01 1000.01 1000.01 1000.01 1000.01 1000.01 1000.01 1000.01 1000.01 1000.01 1000.01 1000.01 1000.01 1000.01 1000.01 1000.01 1000.01 1000.01 1000.01 1000.01 1000.01 1000.01 1000.01 1000.01 1000.01 1000.01 1000.01 1000.01 1000.01 1000.01 1000.01 1000.01 1000.01 1000.03 1000.02 1000.02 1000.03 1000.02 1000.03 1000.01 1000.01 1000 1000.01 1000.01 1000 1000 1000.01 1000.01 1000.01 1000.01 1000.01 1000.01 1000.01 1000.01 1000.01 1000 1000.01 1000.01 1000 1000 1000.01 1000.01 1000 1000.01 1000.01 1000 1000 1000.01 1000.01 1000 1000 1000.01 1000.01 1000.01 1000.04 1000.03 1000.04 1000.02 1000.02 1000.02 1000.01 1000 1000 1000 1000 1000 1000 1000 1000 1000 1000.01 1000 1000 1000 1000 1000 1000 1000 1000 1000 1000 1000 1000 1000 1000 1000 1000 1000 1000 1000 1000 1000 1000 1000 1000 1000.01 1000.01 1000.01 1000.02 1000.01 1000.02 1000 1000 1000 1000 1000 1000 1000 1000 1000 1000 1000 1000 1000 1000 1000 1000 1000 1000 1000 1000 1000 1000 1000 1000 1000 1000 1000 1000 1000 1000 1000 1000 1000 1000 1000 1000.01 1000.01 1000.01 1000.01 1000.01 1000 1000 1000 1000 1000 1000 1000 1000 1000 1000 1000 1000 1000 1000 1000 1000 1000 1000 1000 1000 1000 1000 1000 1000 1000 1000 1000 1000 1000 1000 1000 1000 1000 1000 1000 1000 1000 1000.01 1000.01 1000.01 1000.01 1000.01 1000 1000 1000 1000 1000 1000 1000 1000 1000 1000 1000 1000 1000 1000 1000 1000 1000 1000 1000 1000 1000 1000 1000 1000 1000 1000 1000 1000 1000 1000 1000 1000 1000 1000 1000 1000.01 1000.01 1000.01 1000.01 1000.01 1000.01 1000 1000 1000 1000 1000 1000 1000 1000 1000 1000 1000 1000 1000 1000 1000 1000 1000 1000 1000 1000 1000 1000 1000 1000 1000 1000 1000 1000 1000 1000 1000 1000 1000 1000 1000 1000.01 1000.01 1000.01 1000.01 1000.01 1000 1000 1000 1000 1000 1000 1000 1000 1000 1000 1000 1000 1000 1000 1000 1000 1000 1000 1000 1000 1000 1000 1000 1000 1000 1000 1000 1000 1000 1000 1000 1000 1000 1000 1000 1000 1000 1000.01 1000.01 1000.01 1000.01 1000 1000 1000 1000 1000 1000 1000 1000 1000 1000 1000 1000 1000 1000 1000 1000 1000 1000 1000 1000 1000 1000 1000 1000 1000 1000 1000 1000 1000 1000 1000 1000 1000 1000 1000 1000 1000 1000.01 1000.01 1000.01 1000.01 1000.01 1000 1000 1000 1000 1000 1000 1000 1000 1000 1000 1000 1000 1000 1000 1000 1000 1000 1000 1000 1000 1000 1000 1000 1000 1000 1000 1000 1000 1000 1000 1000 1000 1000 1000 1000 1000.01 1000.01 1000.01 1000.01 1000.01 1000.01 1000 1000 1000 1000 1000 1000 1000 1000 1000 1000 1000 1000 1000 1000 1000 1000 1000 1000 1000 1000 1000 1000 1000 1000 1000 1000 1000 1000 1000 1000 1000 1000 1000 1000 1000 1000.01 1000.01 1000.01 1000.01 1000.01 1000.01 1000 1000 1000 1000 1000 1000 1000 1000 1000 1000 1000 1000 1000 1000 1000 1000 1000 1000 1000 1000 1000 1000 1000 1000 1000 1000 1000 1000 1000 1000 1000 1000 1000 1000 1000 1000.01 1000.01 1000.01 1000.01 1000.01 1000.01 1000.01 1000 1000 1000 1000 1000 1000 1000 1000 1000 1000 1000 1000 1000 1000 1000 1000 1000 1000 1000 1000 1000 1000 1000 1000 1000 1000 1000 1000 1000 1000 1000 1000 1000 1000.01 1000.01 1000.01 1000.01 1000.01 1000.01 1000.01 1000 1000 1000 1000 1000 1000 1000 1000 1000 1000 1000 1000 1000 1000 1000 1000 1000 1000 1000 1000 1000 1000 1000 1000 1000 1000 1000 1000 1000 1000 1000 1000 1000 1000 1000 1000.01 1000.01 1000.01 1000.01 1000.01 1000.01 1000 1000 1000 1000 1000 1000 1000 1000 1000 1000 1000 1000 1000 1000 1000 1000 1000 1000 1000 1000 1000 1000 1000 1000 1000 1000 1000 1000 1000 1000 1000 1000 1000 1000 1000 1000.01 1000.01 1000.01 1000.01 1000.01 1000.01 1000 1000 1000 1000 1000 1000 1000 1000 1000 1000 1000 1000 1000 1000 1000 1000 1000 1000 1000 1000 1000 1000 1000 1000 1000 1000 1000 1000 1000 1000 1000 1000 1000 1000 1000 1000.01 1000.01 1000.01 1000.01 1000.01 1000.01 1000 1000 1000 1000 1000 1000 1000 1000 1000 1000 1000 1000 1000 1000 1000 1000 1000 1000 1000 1000 1000 1000 1000 1000 1000 1000 1000 1000 1000 1000 1000 1000 1000 1000 1000 1000.01 1000.01 1000.01 1000.01 1000.01 1000.01 1000 1000 1000 1000 1000 1000 1000 1000 1000 1000 1000 1000 1000 1000 1000 1000 1000 1000 1000 1000 1000 1000 1000 1000 1000 1000 1000 1000 1000 1000 1000 1000 1000 1000 1000 1000.01 1000.01 1000.01 1000.01 1000.01 1000 1000 1000 1000 1000 1000 1000 1000 1000 1000 1000 1000 1000 1000 1000 1000 1000 1000 1000 1000 1000 1000 1000 1000 1000 1000 1000 1000 1000 1000 1000 1000 1000 1000 1000 1000 1000 1000.01 1000.01 1000.01 1000.01 1000.01 1000 1000 1000 1000 1000 1000 1000 1000 1000 1000 1000 1000 1000 1000 1000 1000 1000 1000 1000 1000 1000 1000 1000 1000 1000 1000 1000 1000 1000 1000 1000 1000 1000 1000 1000 1000.01 1000.01 1000.01 1000.01 1000.01 1000.01 1000 1000 1000 1000 1000 1000 1000 1000 1000 1000 1000 1000 1000 1000 1000 1000 1000 1000 1000 1000 1000 1000 1000 1000 1000 1000 1000 1000 1000 1000 1000 1000 1000 1000 1000 1000.01 1000.01 1000.01 1000.01 1000.01 1000 1000 1000 1000 1000 1000 1000 1000 1000 1000 1000 1000 1000 1000 1000 1000 1000 1000 1000 1000 1000 1000 1000 1000 1000 1000 1000 1000 1000 1000 1000 1000 1000 1000 1000 1000 1000 1000.01 1000.01 1000.01 1000.01 1000 1000 1000 1000 1000 1000 1000 1000 1000 1000 1000 1000 1000 1000 1000 1000 1000 1000 1000 1000 1000 1000 1000 1000 1000 1000 1000 1000 1000 1000 1000 1000 1000 1000 1000 1000 1000 1000.01 1000.01 1000.01 1000.01 1000.01 1000 1000 1000 1000 1000 1000 1000 1000 1000 1000 1000 1000 1000 1000 1000 1000 1000 1000 1000 1000 1000 1000 1000 1000 1000 1000 1000 1000 1000 1000 1000 1000 1000 1000 1000 1000.01 1000.01 1000.01 1000.01 1000.01 1000.01 1000 1000 1000 1000 1000 1000 1000 1000 1000 1000 1000 1000 1000 1000 1000 1000 1000 1000 1000 1000 1000 1000 1000 1000 1000 1000 1000 1000 1000 1000 1000 1000 1000 1000 1000 1000.01 1000.01 1000.01 1000.01 1000.01 1000 1000 1000 1000 1000 1000 1000 1000 1000 1000 1000 1000 1000 1000 1000 1000 1000 1000 1000 1000 1000 1000 1000 1000 1000 1000 1000 1000 1000 1000 1000 1000 1000 1000 1000 1000 1000 1000.01 1000.01 1000.01 1000.01 1000.01 1000 1000 1000 1000 1000 1000 1000 1000 1000 1000 1000 1000 1000 1000 1000 1000 1000 1000 1000 1000 1000 1000 1000 1000 1000 1000 1000 1000 1000 1000 1000 1000 1000 1000 1000 1000.01 1000.01 1000.01 1000.01 1000.01 1000.01 1000 1000 1000 1000 1000 1000 1000 1000 1000 1000 1000 1000 1000 1000 1000 1000 1000 1000 1000 1000 1000 1000 1000 1000 1000 1000 1000 1000 1000 1000 1000 1000 1000 1000 1000 1000.01 1000.01 1000.01 1000.01 1000.01 1000 1000 1000 1000 1000 1000 1000 1000 1000 1000 1000 1000 1000 1000 1000 1000 1000 1000 1000 1000 1000 1000 1000 1000 1000 1000 1000 1000 1000 1000 1000 1000 1000 1000 1000 1000 1000 1000.01 1000.01 1000.01 1000.01 1000 1000 1000 1000 1000 1000 1000 1000 1000 1000 1000 1000 1000 1000 1000 1000 1000 1000 1000 1000 1000 1000 1000 1000 1000 1000 1000 1000 1000 1000 1000 1000 1000 1000 1000 1000 1000 1000.01 1000.01 1000.01 1000.01 1000.01 1000 1000 1000 1000 1000 1000 1000 1000 1000 1000 1000 1000 1000 1000 1000 1000 1000 1000 1000 1000 1000 1000 1000 1000 1000 1000 1000 1000 1000 1000 1000 1000 1000 1000 1000 1000.01 1000.01 1000.01 1000.01 1000.01 1000.01 1000 1000 1000 1000 1000 1000 1000 1000 1000 1000 1000 1000 1000 1000 1000 1000 1000 1000 1000 1000 1000 1000 1000 1000 1000 1000 1000 1000 1000 1000 1000 1000 1000 1000 1000 1000.01 1000.01 1000.01 1000.01 1000.01 1000 1000 1000 1000 1000 1000 1000 1000 1000 1000 1000 1000 1000 1000 1000 1000 1000 1000 1000 1000 1000 1000 1000 1000 1000 1000 1000 1000 1000 1000 1000 1000 1000 1000 1000 1000 1000 1000.01 1000.01 1000.01 1000.01 1000 1000 1000 1000 1000 1000 1000 1000 1000 1000 1000 1000 1000 1000 1000 1000 1000 1000 1000 1000 1000 1000 1000 1000 1000 1000 1000 1000 1000 1000 1000 1000 1000 1000 1000 1000 1000 1000.01 1000.01 1000.01 1000.01 1000.01 1000 1000 1000 1000 1000 1000 1000 1000 1000 1000 1000 1000 1000 1000 1000 1000 1000 1000 1000 1000 1000 1000 1000 1000 1000 1000 1000 1000 1000 1000 1000 1000 1000 1000 1000 1000.01 1000.01 1000.01 1000.01 1000.01 1000.01 1000 1000 1000 1000 1000 1000 1000 1000 1000 1000 1000 1000 1000 1000 1000 1000 1000 1000 1000 1000 1000 1000 1000 1000 1000 1000 1000 1000 1000 1000 1000 1000 1000 1000 1000 1000.01 1000.01 1000.01 1000.01 1000.01 1000.01 1000 1000 1000 1000 1000 1000 1000 1000 1000 1000 1000.01 1000 1000 1000 1000 1000 1000 1000 1000 1000 1000 1000 1000 1000 1000 1000 1000 1000 1000 1000 1000 1000 1000 1000 1000 1000.01 1000.01 1000.01 1000.04 1000.03 1000.04 1000.01 1000.01 1000 1000.01 1000.01 1000 1000 1000.01 1000.01 1000.01 1000.01 1000.01 1000.01 1000.01 1000.01 1000.01 1000 1000.01 1000.01 1000 1000 1000.01 1000.01 1000 1000.01 1000.01 1000 1000 1000.01 1000.01 1000 1000 1000.01 1000.01 1000.01 1000.04 1000.03 1000.03 1000.02 1000.02 1000.03 1000.01 1000.01 1000.01 1000.01 1000.01 1000.01 1000.01 1000.01 1000.01 1000.01 1000.01 1000.01 1000.01 1000.01 1000.01 1000.01 1000.01 1000.01 1000.01 1000.01 1000.01 1000.01 1000.01 1000.01 1000.01 1000.01 1000.01 1000.01 1000.01 1000.01 1000.01 1000.01 1000.01 1000.01 1000.01 1000.03 1000.02 1000.02 1000.03 1000.02 1000.04 1000.01 1000.01 1000.01 1000.01 1000.01 1000.01 1000.01 1000.01 1000.01 1000.01 1000.01 1000.01 1000.01 1000.01 1000.01 1000.01 1000.01 1000.01 1000.01 1000.01 1000.01 1000.01 1000.01 1000.01 1000.01 1000.01 1000.01 1000.01 1000.01 1000.01 1000.01 1000.01 1000.01 1000.01 1000.01 1000.03 1000.02 1000.03 1000 1000 1000 1000 1000 1000 1000 1000 1000 1000 1000 1000 1000 1000 1000 1000 1000 1000 1000 1000 1000 1000 1000 1000 1000 1000 1000 1000 1000 1000 1000 1000 1000 1000 1000 1000 1000 1000 1000 1000 1000 1000 1000 1000 1000 1000 1000 1000 1000 1000 1000 1000 1000 1000 1000 1000 1000 1000 1000 1000 1000 1000 1000 1000 1000 1000 1000 1000 1000 1000 1000 1000 1000 1000 1000 1000 1000 1000 1000 1000 1000 1000 1000 1000 1000 1000 1000 1000 1000 1000 1000 1000 1000 1000 1000 1000 1000 1000 1000 1000 1000 1000 1000 1000 1000 1000 1000 1000 1000 1000 1000 1000 1000 1000 1000 1000 1000 1000 1000 1000 1000 1000 1000 1000 1000 1000 1000 1000 1000 1000 1000 1000 1000 1000 1000 1000 1000 1000 1000 1000 1000 1000 1000 1000 1000 1000 1000 1000 1000 1000 1000 1000 1000 1000 1000 1000 1000 1000 1000 1000 1000 1000 1000 1000 1000 1000 1000 1000 1000 1000 1000 1000 1000 1000 1000 1000 1000 1000 1000 1000 1000 1000 1000 1000 1000 1000 1000 1000 1000 1000 1000 1000 1000 1000 1000 1000 1000 1000 1000 1000 1000 1000 1000 1000 1000 1000 1000 1000 1000 1000 1000 1000 1000 1000 1000 1000 1000 1000 1000 1000 1000 1000 1000 1000 1000 1000 1000 1000 1000 1000 1000 1000 1000 1000 1000 1000 1000 1000 1000 1000 1000 1000 1000 1000 1000 1000 1000 1000 1000 1000 1000 1000 1000 1000 1000 1000 1000 1000 1000 1000 1000 1000 1000 1000 1000 1000 1000 1000 1000 1000 1000 1000 1000 1000 1000 1000 1000 1000 1000 1000 1000 1000 1000 1000 1000 1000 1000 1000 1000 1000 1000 1000 1000 1000 1000 1000 1000 1000 1000 1000 1000 1000 1000 1000 1000 1000 1000 1000 1000 1000 1000 1000 1000 1000 1000 1000 1000 1000 1000 1000 1000 1000 1000 1000 1000 1000 1000 1000 
</DataArray>
<DataArray type="Float32" Name="Velocity" NumberOfComponents="3" format="ascii">
0.004220685 0.0061820401 0
0.0007947993 0.0058904896 0
-4.9912564e-05 0.0058017522 0
3.4888417e-05 0.0049739722 0
4.6904224e-06 0.004175032 0
-5.1080371e-09 0.0029462406 0
1.0238409e-06 0.00418778 0
7.360091e-07 0.0041877762 0
-2.7995623e-07 0.0029437933 0
4.0613543e-07 0.0029422217 0
-1.0691351e-06 0.0041877758 0
4.4421347e-07 0.0041877776 0
1.5610162e-07 0.0041877744 0
1.3650477e-10 0.0051278244 0
4.1755382e-07 0.0041877767 0
-3.2196698e-07 0.0041877776 0
-4.5268411e-08 0.0041877776 0
1.3233609e-06 0.0041877776 0
-1.9933402e-08 0.0041877707 0
-4.8004545e-10 0.0029462411 0
1.2199375e-07 0.0041877767 0
5.7744472e-07 0.0041877795 0
2.4906058e-07 0.0029407698 0
-2.4906058e-07 0.0029407698 0
-6.6104298e-07 0.0041877762 0
3.4855481e-07 0.0041877767 0
0 0.0029462411 0
-3.4855481e-07 0.0041877767 0
6.6104298e-07 0.0041877762 0
2.4906058e-07 0.0029407698 0
-2.4906058e-07 0.0029407698 0
-6.6102081e-07 0.0041877762 0
6.6102081e-07 0.0041877762 0
2.4906058e-07 0.0029407698 0
-2.4661e-07 0.0029407698 0
-2.5490056e-06 0.0041877739 0
-8.4867884e-07 0.0041878042 0
-2.2640012e-05 0.0029803717 0
-0.00074599648 0.0040764264 0
-0.0007062956 0.0039034127 0
-0.0044551292 0.0043980228 0
0.0039685727 0.001185413 0
0.0010952925 0.0012808003 0
0.00038619069 0.0011667543 0
3.1813437e-05 0.0012126876 0
2.1765558e-05 0.0012228242 0
-5.8907141e-09 0.00089758163 0
-1.1950641e-07 0.0012241574 0
1.0609716e-07 0.0012241573 0
-6.5967686e-07 0.0010863644 0
2.6882941e-07 0.0010864319 0
-2.0813307e-07 0.0012241573 0
-3.9416534e-07 0.0012241571 0
1.5541249e-07 0.001224156 0
9.2383928e-10 0.0014732429 0
-4.7881673e-07 0.0012241561 0
6.3363892e-08 0.0012241571 0
-2.5518585e-07 0.0012241571 0
4.5067273e-07 0.0012241584 0
1.9100221e-07 0.0012241573 0
-4.4439225e-10 0.00089758431 0
-4.3854206e-07 0.0012241569 0
4.3123453e-07 0.0012241569 0
-8.4309335e-07 0.0010863907 0
8.4309335e-07 0.0010863907 0
-4.352639e-07 0.0012241569 0
4.352639e-07 0.0012241569 0
6.1845636e-15 0.00089758431 0
-4.352639e-07 0.0012241569 0
4.352639e-07 0.0012241569 0
-8.4309335e-07 0.0010863907 0
8.4309335e-07 0.0010863907 0
-4.352639e-07 0.0012241569 0
4.352639e-07 0.0012241569 0
-8.4309335e-07 0.0010863907 0
8.4497668e-07 0.0010863906 0
-4.2439262e-07 0.0012241571 0
4.4632557e-07 0.0012241571 0
-6.1442879e-05 0.0011022899 0
-0.00056478102 0.00089753565 0
-0.00095135276 0.0009470947 0
-0.0038905544 0.00066544052 0
0.0037918964 0.00026251166 0
0.0010386978 0.00033213518 0
0.00060068467 0.00015474156 0
4.545402e-05 0.00011903574 0
1.2134836e-05 0.00013713025 0
3.4707957e-06 4.3944878e-05 0
2.0447039e-06 0.00013624213 0
1.732966e-06 0.00013620115 0
3.0567449e-08 4.5311546e-05 0
2.0785542e-06 4.5357974e-05 0
-2.4926351e-07 0.00013617023 0
-5.0757382e-07 0.00013616958 0
3.3112347e-08 0.00013616456 0
-8.8646107e-07 0.000131612 0
-5.5748848e-07 0.0001361646 0
9.5797752e-08 0.00013616958 0
-2.1786099e-07 0.00013616958 0
4.2759007e-07 0.00013616959 0
1.7194724e-07 0.00013617199 0
3.308466e-07 4.4114604e-05 0
6.7002212e-08 0.00013616934 0
3.896231e-07 0.00013617 0
-2.1100209e-06 4.5347711e-05 0
2.1100209e-06 4.5347711e-05 0
6.4897563e-08 0.00013616993 0
-2.5190752e-07 0.00013617022 0
-1.9718671e-15 4.4113465e-05 0
2.5190752e-07 0.00013617022 0
-6.4897563e-08 0.00013616993 0
-2.1100209e-06 4.5347711e-05 0
2.1100209e-06 4.5347711e-05 0
6.4897563e-08 0.00013616993 0
-6.4897563e-08 0.00013616993 0
-2.2757204e-06 4.5347711e-05 0
-5.1066127e-07 4.5321733e-05 0
-4.2159991e-06 0.00013619621 0
-3.7770146e-06 0.00013628237 0
-8.7966757e-05 4.0406827e-05 0
-0.00045779199 0.00041488698 0
-0.00085791189 0.00052756642 0
-0.0039404975 0.00055647263 0
0.0042574867 0.00032980824 0
0.0010332359 0.00027913132 0
0.00040435014 0.00011960963 0
4.9627892e-05 4.0581297e-05 0
1.9407091e-06 1.8763461e-05 0
6.9974234e-08 1.3895706e-06 0
4.7957101e-08 1.9510773e-05 0
3.5053191e-09 1.9510662e-05 0
7.6727488e-08 1.3915222e-06 0
-9.7222802e-08 1.391554e-06 0
-1.7817553e-07 1.9510662e-05 0
-1.8981777e-07 1.9510577e-05 0
3.204938e-07 1.9510451e-05 0
8.1493937e-11 8.4458887e-05 0
-3.1888968e-07 1.9510453e-05 0
1.9022664e-07 1.9510577e-05 0
-4.6703015e-08 1.9510577e-05 0
1.7390236e-07 1.9510577e-05 0
4.8670188e-08 1.9510659e-05 0
3.323283e-08 1.3898505e-06 0
-2.7924534e-07 1.9510653e-05 0
2.7808164e-07 1.951065e-05 0
6.4019169e-08 1.3915438e-06 0
-6.4019247e-08 1.3915438e-06 0
-2.7870456e-07 1.9510642e-05 0
2.7870237e-07 1.9510648e-05 0
-4.7606364e-16 1.3898764e-06 0
-2.7870237e-07 1.9510648e-05 0
2.7870456e-07 1.9510642e-05 0
6.4019247e-08 1.3915438e-06 0
-6.4019247e-08 1.3915438e-06 0
-2.7870456e-07 1.9510642e-05 0
2.7870456e-07 1.9510642e-05 0
6.4019247e-08 1.3915438e-06 0
-6.3864846e-08 1.3915118e-06 0
-2.7676231e-07 1.9510675e-05 0
-1.5409722e-07 1.9511152e-05 0
-2.3369783e-05 4.1114376e-06 0
-0.00013105277 0.00010385826 0
-0.001217635 7.0693844e-05 0
-0.0041941521 0.00012116781 0
0.004188743 0.0001390336 0
0.001201462 0.00011014508 0
0.00014249599 0.0001074875 0
2.5073823e-05 4.3908021e-06 0
2.518801e-07 2.2490147e-07 0
6.0050992e-11 5.8196914e-09 0
-4.7745323e-09 2.5900954e-07 0
4.7745323e-09 2.5900948e-07 0
-5.0330274e-16 5.8213985e-09 0
1.5764979e-16 5.8214837e-09 0
-4.7744551e-09 2.5900948e-07 0
4.774769e-09 2.5900943e-07 0
-4.7704063e-09 2.590092e-07 0
0 3.1691284e-06 0
4.7689732e-09 2.590092e-07 0
-4.774769e-09 2.5900943e-07 0
4.7744551e-09 2.5900943e-07 0
-4.7744551e-09 2.5900943e-07 0
4.7744551e-09 2.5900948e-07 0
0 5.8198397e-09 0
-4.77442e-09 2.5900945e-07 0
4.77442e-09 2.5900945e-07 0
0 5.8214527e-09 0
0 5.8214527e-09 0
-4.77442e-09 2.5900945e-07 0
4.77442e-09 2.5900945e-07 0
0 5.8198735e-09 0
-4.77442e-09 2.5900945e-07 0
4.77442e-09 2.5900945e-07 0
0 5.8214527e-09 0
0 5.8214527e-09 0
-4.77442e-09 2.5900945e-07 0
4.77442e-09 2.5900945e-07 0
0 5.8214527e-09 0
0 5.8214318e-09 0
-4.8298587e-09 2.5900948e-07 0
-2.1530435e-07 2.5900965e-07 0
-1.8721066e-05 2.564627e-07 0
-0.00013689054 1.2606527e-05 0
-0.0012228464 3.3568384e-05 0
-0.0041749491 3.7041435e-05 0
0.0029544109 -4.8524242e-07 0
0.0010952369 1.2902128e-06 0
4.5152825e-05 8.0660566e-06 0
1.3912877e-06 9.5749186e-08 0
5.8214926e-09 5.8528252e-11 0
0 0 0
-4.7746509e-09 7.4212067e-11 0
4.7746509e-09 7.4212046e-11 0
0 0 0
0 0 0
-4.7746509e-09 7.4212039e-11 0
4.7746509e-09 7.4212032e-11 0
-4.7746509e-09 7.4211914e-11 0
0 2.8816884e-09 0
4.7746509e-09 7.4211914e-11 0
-4.7746509e-09 7.4212032e-11 0
4.7746509e-09 7.4212032e-11 0
-4.7746509e-09 7.4212032e-11 0
4.7746509e-09 7.4212046e-11 0
0 0 0
-4.7746562e-09 7.4212046e-11 0
4.7746562e-09 7.4212039e-11 0
0 0 0
0 0 0
-4.7746562e-09 7.4212039e-11 0
4.7746562e-09 7.4212039e-11 0
0 0 0
-4.7746562e-09 7.4212039e-11 0
4.7746562e-09 7.4212039e-11 0
0 0 0
0 0 0
-4.7746562e-09 7.4212039e-11 0
4.7746562e-09 7.4212039e-11 0
0 0 0
0 0 0
-4.7746562e-09 7.4212046e-11 0
3.8542893e-09 7.4212102e-11 0
-1.3957804e-06 1.5090052e-08 0
-4.5137815e-05 4.804715e-06 0
-0.0010863475 3.9834853e-07 0
-0.0029422592 -1.3762499e-07 0
0.0041877795 1.0213822e-06 0
0.0012241574 -1.1972612e-07 0
0.00013625623 2.2398708e-06 0
1.9510784e-05 4.7924807e-08 0
2.5900954e-07 -4.7745323e-09 0
7.4212067e-11 -4.7746509e-09 0
-4.7746509e-09 -4.7746509e-09 0
4.7746509e-09 -4.7746509e-09 0
0 -4.7746509e-09 0
0 -4.7746509e-09 0
-4.7746509e-09 -4.7746509e-09 0
4.7746509e-09 -4.7746509e-09 0
-4.7746509e-09 -4.7746509e-09 0
0 -4.7746509e-09 0
4.7746509e-09 -4.7746509e-09 0
-4.7746509e-09 -4.7746509e-09 0
4.7746509e-09 -4.7746509e-09 0
-4.7746509e-09 -4.7746509e-09 0
4.7746509e-09 -4.7746509e-09 0
0 -4.7746509e-09 0
-4.7746562e-09 -4.7746509e-09 0
4.7746562e-09 -4.7746509e-09 0
0 -4.7746509e-09 0
0 -4.7746509e-09 0
-4.7746562e-09 -4.7746509e-09 0
4.7746562e-09 -4.7746509e-09 0
0 -4.7746509e-09 0
-4.7746562e-09 -4.7746509e-09 0
4.7746562e-09 -4.7746509e-09 0
0 -4.7746509e-09 0
0 -4.7746509e-09 0
-4.7746562e-09 -4.7746509e-09 0
4.7746562e-09 -4.7746509e-09 0
0 -4.7746509e-09 0
0 -4.7746509e-09 0
-4.8446509e-09 -4.7746509e-09 0
-2.4941301e-07 -4.7745323e-09 0
-1.9515532e-05 4.7949538e-08 0
-0.00013625268 2.2433408e-06 0
-0.0012241297 -1.1947078e-07 0
-0.0041877739 1.0260043e-06 0
0.0041877762 7.3294029e-07 0
0.0012241573 1.0583138e-07 0
0.00013620417 2.4075712e-06 0
1.9510664e-05 3.4669578e-09 0
2.5900948e-07 4.7745323e-09 0
7.4212046e-11 4.7746509e-09 0
-4.7746509e-09 4.7746509e-09 0
4.7746509e-09 4.7746509e-09 0
0 4.7746509e-09 0
0 4.7746509e-09 0
-4.7746509e-09 4.7746509e-09 0
4.7746509e-09 4.7746509e-09 0
-4.7746509e-09 4.7746509e-09 0
0 4.7746509e-09 0
4.7746509e-09 4.7746509e-09 0
-4.7746509e-09 4.7746509e-09 0
4.7746509e-09 4.7746509e-09 0
-4.7746509e-09 4.7746509e-09 0
4.7746509e-09 4.7746509e-09 0
0 4.7746509e-09 0
-4.7746562e-09 4.7746509e-09 0
4.7746562e-09 4.7746509e-09 0
0 4.7746509e-09 0
0 4.7746509e-09 0
-4.7746562e-09 4.7746509e-09 0
4.7746562e-09 4.7746509e-09 0
0 4.7746509e-09 0
-4.7746562e-09 4.7746509e-09 0
4.7746562e-09 4.7746509e-09 0
0 4.7746509e-09 0
0 4.7746509e-09 0
-4.7746562e-09 4.7746509e-09 0
4.7746562e-09 4.7746509e-09 0
0 4.7746509e-09 0
0 4.7746509e-09 0
-4.8446509e-09 4.7746509e-09 0
-2.4941295e-07 4.7745323e-09 0
-1.9515428e-05 3.5182328e-09 0
-0.0001362008 2.2647343e-06 0
-0.0012241296 1.0618347e-07 0
-0.0041877707 7.397548e-07 0
0.0029437933 -2.8008483e-07 0
0.0010863644 -6.5977019e-07 0
4.5308476e-05 3.1758285e-07 0
1.3915179e-06 7.6719388e-08 0
5.8213971e-09 -5.0330121e-16 0
0 0 0
-4.7746509e-09 0 0
4.7746509e-09 0 0
0 0 0
0 0 0
-4.7746509e-09 0 0
4.7746509e-09 0 0
-4.7746509e-09 0 0
0 0 0
4.7746509e-09 0 0
-4.7746509e-09 0 0
4.7746509e-09 0 0
-4.7746509e-09 0 0
4.7746509e-09 0 0
0 0 0
-4.7746562e-09 0 0
4.7746562e-09 0 0
0 0 0
0 0 0
-4.7746562e-09 0 0
4.7746562e-09 0 0
0 0 0
-4.7746562e-09 0 0
4.7746562e-09 0 0
0 0 0
0 0 0
-4.7746562e-09 0 0
4.7746562e-09 0 0
0 0 0
0 0 0
-4.7746562e-09 0 0
3.8541743e-09 -5.0918867e-16 0
-1.3961198e-06 7.67293e-08 0
-4.5312343e-05 1.0961737e-07 0
-0.0010863492 -6.6029048e-07 0
-0.0029438382 -2.7923409e-07 0
0.0029422217 4.061354e-07 0
0.0010864319 2.6882941e-07 0
4.5357978e-05 2.0785694e-06 0
1.391554e-06 -9.7222802e-08 0
5.8214837e-09 1.5764979e-16 0
0 0 0
-4.7746509e-09 0 0
4.7746509e-09 0 0
0 0 0
0 0 0
-4.7746509e-09 0 0
4.7746509e-09 0 0
-4.7746509e-09 0 0
0 0 0
4.7746509e-09 0 0
-4.7746509e-09 0 0
4.7746509e-09 0 0
-4.7746509e-09 0 0
4.7746509e-09 0 0
0 0 0
-4.7746562e-09 0 0
4.7746562e-09 0 0
0 0 0
0 0 0
-4.7746562e-09 0 0
4.7746562e-09 0 0
0 0 0
-4.7746562e-09 0 0
4.7746562e-09 0 0
0 0 0
0 0 0
-4.7746562e-09 0 0
4.7746562e-09 0 0
0 0 0