<?xml version="1.0" ?>

<VTKFile type="UnstructuredGrid" version="0.1" byte_order="BigEndian">

<UnstructuredGrid>

<Piece NumberOfPoints= " 2009 " NumberOfCells=" 2009 ">

<PointData Scalars="Pressure" Vectors="Velocity">

<DataArray type="Float32" Name="Pressure" format="ascii">

10.8365 19.6351 22.2103 10.7292 11.1584 8.58331 6.65203 6.65203 9.33438 9.33438 6.65203 6.65203 6.65203 6.65203 6.65203 6.65203 6.65203 6.65203 6.65203 8.47602 6.65203 6.65203 9.33438 9.33438 6.65203 6.65203 8.58331 6.65203 6.65203 9.33438 9.33438 6.65203 6.65203 9.33438 9.33438 6.65203 16.5233 16.416 14.27 12.9825 18.6693 19.8497 18.562 16.6306 16.9525 12.0168 5.36451 7.72496 7.72496 5.90098 5.90098 7.72496 7.61767 7.61767 7.93955 7.61767 7.61767 7.61767 7.61767 7.72496 5.36451 7.72496 7.72496 6.00827 6.00827 7.72496 7.72496 5.36451 7.72496 7.72496 6.00827 6.00827 7.72496 7.72496 6.00827 6.00827 7.72496 11.5876 14.4846 12.9825 12.6606 15.4503 20.7081 17.0598 18.0255 17.8109 11.5876 8.47602 6.65203 6.65203 9.54897 9.54897 6.65203 6.65203 6.65203 6.54473 6.65203 6.65203 6.65203 6.65203 6.65203 8.15414 6.65203 6.65203 9.54897 9.54897 6.65203 6.65203 8.15414 6.65203 6.65203 9.54897 9.54897 6.65203 6.65203 9.65626 9.54897 6.65203 10.3 17.9182 13.9481 12.0168 19.5278 10.0854 7.29579 5.79368 4.82805 7.83225 1.71662 3.43327 3.43327 1.71662 1.71662 3.43327 3.43327 3.43327 1.71662 3.43327 3.43327 3.43327 3.43327 3.43327 1.71662 3.43327 3.43327 1.71662 1.71662 3.43327 3.43327 1.71662 3.43327 3.43327 1.71662 1.71662 3.43327 3.43327 1.71662 1.71662 3.43327 9.33438 7.51037 13.8408 15.1284 13.197 12.1241 6.97391 5.90098 9.65626 8.15414 0 3.75514 3.75514 0 0 3.75514 3.75514 3.75514 3.54056 3.75514 3.75514 3.75514 3.75514 3.75514 0 3.75514 3.75514 0 0 3.75514 3.75514 0 3.75514 3.75514 0 0 3.75514 3.75514 0 0 3.86243 12.5533 5.5791 11.2657 11.9095 13.3043 14.8065 19.3131 18.562 4.39889 2.14578 0 0 0 0 0 0 0 0 3.43327 0 0 0 0 0 0 0 0 0 0 0 0 0 0 0 0 0 0 0 0 0 0 0 1.82391 9.65626 5.90098 9.65626 10.1927 9.33438 7.93955 4.72076 6.43744 0 0 0 0 0 0 0 0 0 0 0 0 0 0 0 0 0 0 0 0 0 0 0 0 0 0 0 0 0 0 0 3.75514 3.43327 6.65203 7.72496 6.65203 6.65203 7.72496 6.65203 3.43327 3.75514 0 0 0 0 0 0 0 0 0 0 0 0 0 0 0 0 0 0 0 0 0 0 0 0 0 0 0 0 0 0 0 3.75514 3.43327 6.65203 7.72496 6.65203 9.33438 5.90098 9.54897 1.71662 0 0 0 0 0 0 0 0 0 0 0 0 0 0 0 0 0 0 0 0 0 0 0 0 0 0 0 0 0 0 0 0 0 1.71662 9.54897 5.90098 9.33438 9.33438 5.90098 9.54897 1.71662 0 0 0 0 0 0 0 0 0 0 0 0 0 0 0 0 0 0 0 0 0 0 0 0 0 0 0 0 0 0 0 0 0 1.71662 9.54897 5.90098 9.33438 6.65203 7.72496 6.65203 3.43327 3.75514 0 0 0 0 0 0 0 0 0 0 0 0 0 0 0 0 0 0 0 0 0 0 0 0 0 0 0 0 0 0 0 3.75514 3.43327 6.65203 7.72496 6.65203 6.65203 7.61767 6.65203 3.43327 3.75514 0 0 0 0 0 0 0 0 0 0 0 0 0 0 0 0 0 0 0 0 0 0 0 0 0 0 0 0 0 0 0 3.75514 3.43327 6.65203 7.61767 6.65203 6.65203 7.61767 6.65203 3.43327 3.75514 0 0 0 0 0 0 0 0 0 0 0 0 0 0 0 0 0 0 0 0 0 0 0 0 0 0 0 0 0 0 0 3.75514 3.43327 6.65203 7.61767 6.65203 6.65203 7.93955 6.54473 1.71662 3.54056 3.43327 0 0 0 0 0 0 0 0 0 0 0 0 0 0 0 0 0 0 0 0 0 0 0 0 0 0 0 0 0 3.43327 3.54056 1.71662 6.54473 7.93955 6.65203 6.65203 7.61767 6.65203 3.43327 3.75514 0 0 0 0 0 0 0 0 0 0 0 0 0 0 0 0 0 0 0 0 0 0 0 0 0 0 0 0 0 0 0 3.75514 3.43327 6.65203 7.61767 6.65203 6.65203 7.61767 6.65203 3.43327 3.75514 0 0 0 0 0 0 0 0 0 0 0 0 0 0 0 0 0 0 0 0 0 0 0 0 0 0 0 0 0 0 0 3.75514 3.43327 6.65203 7.61767 6.65203 6.65203 7.61767 6.65203 3.43327 3.75514 0 0 0 0 0 0 0 0 0 0 0 0 0 0 0 0 0 0 0 0 0 0 0 0 0 0 0 0 0 0 0 3.75514 3.43327 6.65203 7.61767 6.65203 6.65203 7.61767 6.65203 3.43327 3.75514 0 0 0 0 0 0 0 0 0 0 0 0 0 0 0 0 0 0 0 0 0 0 0 0 0 0 0 0 0 0 0 3.75514 3.43327 6.65203 7.61767 6.65203 6.65203 7.72496 6.65203 3.43327 3.75514 0 0 0 0 0 0 0 0 0 0 0 0 0 0 0 0 0 0 0 0 0 0 0 0 0 0 0 0 0 0 0 3.75514 3.43327 6.65203 7.72496 6.65203 8.47602 5.36451 8.15414 1.71662 0 0 0 0 0 0 0 0 0 0 0 0 0 0 0 0 0 0 0 0 0 0 0 0 0 0 0 0 0 0 0 0 0 1.71662 8.15414 5.36451 8.47602 6.65203 7.72496 6.65203 3.43327 3.75514 0 0 0 0 0 0 0 0 0 0 0 0 0 0 0 0 0 0 0 0 0 0 0 0 0 0 0 0 0 0 0 3.75514 3.43327 6.65203 7.72496 6.65203 6.65203 7.72496 6.65203 3.43327 3.75514 0 0 0 0 0 0 0 0 0 0 0 0 0 0 0 0 0 0 0 0 0 0 0 0 0 0 0 0 0 0 0 3.75514 3.43327 6.65203 7.72496 6.65203 9.33438 6.00827 9.54897 1.71662 0 0 0 0 0 0 0 0 0 0 0 0 0 0 0 0 0 0 0 0 0 0 0 0 0 0 0 0 0 0 0 0 0 1.71662 9.54897 6.00827 9.33438 9.33438 6.00827 9.54897 1.71662 0 0 0 0 0 0 0 0 0 0 0 0 0 0 0 0 0 0 0 0 0 0 0 0 0 0 0 0 0 0 0 0 0 1.71662 9.54897 6.00827 9.33438 6.65203 7.72496 6.65203 3.43327 3.75514 0 0 0 0 0 0 0 0 0 0 0 0 0 0 0 0 0 0 0 0 0 0 0 0 0 0 0 0 0 0 0 3.75514 3.43327 6.65203 7.72496 6.65203 6.65203 7.72496 6.65203 3.43327 3.75514 0 0 0 0 0 0 0 0 0 0 0 0 0 0 0 0 0 0 0 0 0 0 0 0 0 0 0 0 0 0 0 3.75514 3.43327 6.65203 7.72496 6.65203 8.58331 5.36451 8.15414 1.71662 0 0 0 0 0 0 0 0 0 0 0 0 0 0 0 0 0 0 0 0 0 0 0 0 0 0 0 0 0 0 0 0 0 1.71662 8.15414 5.36451 8.58331 6.65203 7.72496 6.65203 3.43327 3.75514 0 0 0 0 0 0 0 0 0 0 0 0 0 0 0 0 0 0 0 0 0 0 0 0 0 0 0 0 0 0 0 3.75514 3.43327 6.65203 7.72496 6.65203 6.65203 7.72496 6.65203 3.43327 3.75514 0 0 0 0 0 0 0 0 0 0 0 0 0 0 0 0 0 0 0 0 0 0 0 0 0 0 0 0 0 0 0 3.75514 3.43327 6.65203 7.72496 6.65203 9.33438 6.00827 9.54897 1.71662 0 0 0 0 0 0 0 0 0 0 0 0 0 0 0 0 0 0 0 0 0 0 0 0 0 0 0 0 0 0 0 0 0 1.71662 9.54897 6.00827 9.33438 9.33438 6.00827 9.54897 1.71662 0 0 0 0 0 0 0 0 0 0 0 0 0 0 0 0 0 0 0 0 0 0 0 0 0 0 0 0 0 0 0 0 0 1.71662 9.54897 6.00827 9.33438 6.65203 7.72496 6.65203 3.43327 3.75514 0 0 0 0 0 0 0 0 0 0 0 0 0 0 0 0 0 0 0 0 0 0 0 0 0 0 0 0 0 0 0 3.75514 3.43327 6.65203 7.72496 6.65203 6.65203 7.72496 6.65203 3.43327 3.75514 0 0 0 0 0 0 0 0 0 0 0 0 0 0 0 0 0 0 0 0 0 0 0 0 0 0 0 0 0 0 0 3.75514 3.43327 6.65203 7.72496 6.65203 9.33438 6.00827 9.65626 1.71662 0 0 0 0 0 0 0 0 0 0 0 0 0 0 0 0 0 0 0 0 0 0 0 0 0 0 0 0 0 0 0 0 0 1.71662 9.54897 6.00827 9.33438 9.33438 6.00827 9.54897 1.71662 0 0 0 0 0 0 0 0 0 0 0 0 0 0 0 0 0 0 0 0 0 0 0 0 0 0 0 0 0 0 0 0 0 1.71662 9.54897 6.00827 9.33438 6.65203 7.72496 6.65203 3.43327 3.86243 0 0 0 0 0 0 0 0 3.43327 0 0 0 0 0 0 0 0 0 0 0 0 0 0 0 0 0 0 0 0 0 0 3.86243 3.43327 6.65203 7.72496 6.65203 16.5233 11.5876 10.3 9.33438 12.5533 0 3.75514 3.75514 0 0 3.75514 3.75514 3.75514 3.54056 3.75514 3.75514 3.75514 3.75514 3.75514 0 3.75514 3.75514 0 0 3.75514 3.75514 0 3.75514 3.75514 0 0 3.75514 3.75514 0 0 3.86243 12.446 6.22285 11.1584 11.9095 13.9481 16.416 14.4846 17.9182 7.51037 5.5791 1.82391 3.43327 3.43327 1.71662 1.71662 3.43327 3.43327 3.43327 1.71662 3.43327 3.43327 3.43327 3.43327 3.43327 1.71662 3.43327 3.43327 1.71662 1.71662 3.43327 3.43327 1.71662 3.43327 3.43327 1.71662 1.71662 3.43327 3.43327 1.71662 1.71662 3.43327 6.22285 5.90098 16.6306 13.6262 15.0211 14.27 12.9825 13.9481 13.8408 11.2657 9.65626 6.65203 6.65203 9.54897 9.54897 6.65203 6.65203 6.65203 6.54473 6.65203 6.65203 6.65203 6.65203 6.65203 8.15414 6.65203 6.65203 9.54897 9.54897 6.65203 6.65203 8.15414 6.65203 6.65203 9.54897 9.54897 6.65203 6.65203 9.54897 9.54897 6.65203 11.1584 16.6306 14.6992 12.7679 16.3087 12.9825 12.6606 12.0168 15.1284 11.9095 5.90098 7.72496 7.72496 5.90098 5.90098 7.72496 7.61767 7.61767 7.93955 7.61767 7.61767 7.61767 7.61767 7.72496 5.36451 7.72496 7.72496 6.00827 6.00827 7.72496 7.72496 5.36451 7.72496 7.72496 6.00827 6.00827 7.72496 7.72496 6.00827 6.00827 7.72496 11.9095 13.6262 12.7679 12.6606 15.1284 18.6693 15.4503 19.5278 13.197 13.3043 9.65626 6.65203 6.65203 9.33438 9.33438 6.65203 6.65203 6.65203 6.65203 6.65203 6.65203 6.65203 6.65203 6.65203 8.47602 6.65203 6.65203 9.33438 9.33438 6.65203 6.65203 8.58331 6.65203 6.65203 9.33438 9.33438 6.65203 6.65203 9.33438 9.33438 6.65203 13.9481 15.0211 16.3087 15.1284 16.9525 0.1 0.1 0.1 0.1 0.1 0.1 0.1 0.1 0.1 0.1 0.1 0.1 0.1 0.1 0.1 0.1 0.1 0.1 0.1 0.1 0.1 0.1 0.1 0.1 0.1 0.1 0.1 0.1 0.1 0.1 0.1 0.1 0.1 0.1 0.1 0.1 0.1 0.1 0.1 0.1 0.1 0.1 0.1 0.1 0.1 0.1 0.1 0.1 0.1 0.1 0.1 0.1 0.1 0.1 0.1 0.1 0.1 0.1 0.1 0.1 0.1 0.1 0.1 0.1 0.1 0.1 0.1 0.1 0.1 0.1 0.1 0.1 0.1 0.1 0.1 0.1 0.1 0.1 0.1 0.1 0.1 0.1 0.1 0.1 0.1 0.1 0.1 0.1 0.1 0.1 0.1 0.1 0.1 0.1 0.1 0.1 0.1 0.1 0.1 0.1 0.1 0.1 0.1 0.1 0.1 0.1 0.1 0.1 0.1 0.1 0.1 0.1 0.1 0.1 0.1 0.1 0.1 0.1 0.1 0.1 0.1 0.1 0.1 0.1 0.1 0.1 0.1 0.1 0.1 0.1 0.1 0.1 0.1 0.1 0.1 0.1 0.1 0.1 0.1 0.1 0.1 0.1 0.1 0.1 0.1 0.1 0.1 0.1 0.1 0.1 0.1 0.1 0.1 0.1 0.1 0.1 0.1 0.1 0.1 0.1 0.1 0.1 0.1 0.1 0.1 0.1 0.1 0.1 0.1 0.1 0.1 0.1 0.1 0.1 0.1 0.1 0.1 0.1 0.1 0.1 0.1 0.1 0.1 0.1 0.1 0.1 0.1 0.1 0.1 0.1 0.1 0.1 0.1 0.1 0.1 0.1 0.1 0.1 0.1 0.1 0.1 0.1 0.1 0.1 0.1 0.1 0.1 0.1 0.1 0.1 0.1 0.1 0.1 0.1 0.1 0.1 0.1 0.1 0.1 0.1 0.1 0.1 0.1 0.1 0.1 0.1 0.1 0.1 0.1 0.1 0.1 0.1 0.1 0.1 0.1 0.1 0.1 0.1 0.1 0.1 0.1 0.1 0.1 0.1 0.1 0.1 0.1 0.1 0.1 0.1 0.1 0.1 0.1 0.1 0.1 0.1 0.1 0.1 0.1 0.1 0.1 0.1 0.1 0.1 0.1 0.1 0.1 0.1 0.1 0.1 0.1 0.1 0.1 0.1 0.1 0.1 0.1 0.1 0.1 0.1 0.1 0.1 0.1 0.1 0.1 0.1 0.1 0.1 0.1 0.1 0.1 0.1 0.1 0.1 0.1 0.1 0.1 0.1 0.1 0.1 0.1 0.1 0.1 0.1 0.1 0.1 0.1 0.1 0.1 0.1 0.1 0.1 0.1 0.1 0.1 0.1 0.1 0.1 0.1 0.1 0.1 0.1 0.1 0.1 0.1 0.1 0.1 0.1 
</DataArray>

<DataArray type="Float32" Name="Density" format="ascii">
1000.01 1000.02 1000.02 1000.01 1000.01 1000.01 1000.01 1000.01 1000.01 1000.01 1000.01 1000.01 1000.01 1000.01 1000.01 1000.01 1000.01 1000.01 1000.01 1000.01 1000.01 1000.01 1000.01 1000.01 1000.01 1000.01 1000.01 1000.01 1000.01 1000.01 1000.01 1000.01 1000.01 1000.01 1000.01 1000.01 1000.02 1000.02 1000.02 1000.01 1000.02 1000.02 1000.02 1000.02 1000.02 1000.01 1000.01 1000.01 1000.01 1000.01 1000.01 1000.01 1000.01 1000.01 1000.01 1000.01 1000.01 1000.01 1000.01 1000.01 1000.01 1000.01 1000.01 1000.01 1000.01 1000.01 1000.01 1000.01 1000.01 1000.01 1000.01 1000.01 1000.01 1000.01 1000.01 1000.01 1000.01 1000.01 1000.02 1000.01 1000.01 1000.02 1000.02 1000.02 1000.02 1000.02 1000.01 1000.01 1000.01 1000.01 1000.01 1000.01 1000.01 1000.01 1000.01 1000.01 1000.01 1000.01 1000.01 1000.01 1000.01 1000.01 1000.01 1000.01 1000.01 1000.01 1000.01 1000.01 1000.01 1000.01 1000.01 1000.01 1000.01 1000.01 1000.01 1000.01 1000.01 1000.01 1000.01 1000.02 1000.02 1000.01 1000.02 1000.01 1000.01 1000.01 1000.01 1000.01 1000 1000 1000 1000 1000 1000 1000 1000 1000 1000 1000 1000 1000 1000 1000 1000 1000 1000 1000 1000 1000 1000 1000 1000 1000 1000 1000 1000 1000 1000 1000 1000.01 1000.01 1000.02 1000.02 1000.01 1000.01 1000.01 1000.01 1000.01 1000.01 1000 1000 1000 1000 1000 1000 1000 1000 1000 1000 1000 1000 1000 1000 1000 1000 1000 1000 1000 1000 1000 1000 1000 1000 1000 1000 1000 1000 1000 1000 1000 1000.01 1000.01 1000.01 1000.01 1000.01 1000.02 1000.02 1000.02 1000 1000 1000 1000 1000 1000 1000 1000 1000 1000 1000 1000 1000 1000 1000 1000 1000 1000 1000 1000 1000 1000 1000 1000 1000 1000 1000 1000 1000 1000 1000 1000 1000 1000 1000 1000.01 1000.01 1000.01 1000.01 1000.01 1000.01 1000.01 1000.01 1000 1000 1000 1000 1000 1000 1000 1000 1000 1000 1000 1000 1000 1000 1000 1000 1000 1000 1000 1000 1000 1000 1000 1000 1000 1000 1000 1000 1000 1000 1000 1000 1000 1000.01 1000.01 1000.01 1000.01 1000.01 1000.01 1000 1000 1000 1000 1000 1000 1000 1000 1000 1000 1000 1000 1000 1000 1000 1000 1000 1000 1000 1000 1000 1000 1000 1000 1000 1000 1000 1000 1000 1000 1000 1000 1000 1000 1000 1000.01 1000.01 1000.01 1000.01 1000.01 1000.01 1000 1000 1000 1000 1000 1000 1000 1000 1000 1000 1000 1000 1000 1000 1000 1000 1000 1000 1000 1000 1000 1000 1000 1000 1000 1000 1000 1000 1000 1000 1000 1000 1000 1000 1000 1000.01 1000.01 1000.01 1000.01 1000.01 1000.01 1000 1000 1000 1000 1000 1000 1000 1000 1000 1000 1000 1000 1000 1000 1000 1000 1000 1000 1000 1000 1000 1000 1000 1000 1000 1000 1000 1000 1000 1000 1000 1000 1000 1000 1000 1000.01 1000.01 1000.01 1000.01 1000.01 1000.01 1000 1000 1000 1000 1000 1000 1000 1000 1000 1000 1000 1000 1000 1000 1000 1000 1000 1000 1000 1000 1000 1000 1000 1000 1000 1000 1000 1000 1000 1000 1000 1000 1000 1000 1000 1000.01 1000.01 1000.01 1000.01 1000.01 1000.01 1000 1000 1000 1000 1000 1000 1000 1000 1000 1000 1000 1000 1000 1000 1000 1000 1000 1000 1000 1000 1000 1000 1000 1000 1000 1000 1000 1000 1000 1000 1000 1000 1000 1000 1000 1000.01 1000.01 1000.01 1000.01 1000.01 1000.01 1000 1000 1000 1000 1000 1000 1000 1000 1000 1000 1000 1000 1000 1000 1000 1000 1000 1000 1000 1000 1000 1000 1000 1000 1000 1000 1000 1000 1000 1000 1000 1000 1000 1000 1000 1000.01 1000.01 1000.01 1000.01 1000.01 1000.01 1000 1000 1000 1000 1000 1000 1000 1000 1000 1000 1000 1000 1000 1000 1000 1000 1000 1000 1000 1000 1000 1000 1000 1000 1000 1000 1000 1000 1000 1000 1000 1000 1000 1000 1000 1000.01 1000.01 1000.01 1000.01 1000.01 1000.01 1000 1000 1000 1000 1000 1000 1000 1000 1000 1000 1000 1000 1000 1000 1000 1000 1000 1000 1000 1000 1000 1000 1000 1000 1000 1000 1000 1000 1000 1000 1000 1000 1000 1000 1000 1000.01 1000.01 1000.01 1000.01 1000.01 1000.01 1000 1000 1000 1000 1000 1000 1000 1000 1000 1000 1000 1000 1000 1000 1000 1000 1000 1000 1000 1000 1000 1000 1000 1000 1000 1000 1000 1000 1000 1000 1000 1000 1000 1000 1000 1000.01 1000.01 1000.01 1000.01 1000.01 1000.01 1000 1000 1000 1000 1000 1000 1000 1000 1000 1000 1000 1000 1000 1000 1000 1000 1000 1000 1000 1000 1000 1000 1000 1000 1000 1000 1000 1000 1000 1000 1000 1000 1000 1000 1000 1000.01 1000.01 1000.01 1000.01 1000.01 1000.01 1000 1000 1000 1000 1000 1000 1000 1000 1000 1000 1000 1000 1000 1000 1000 1000 1000 1000 1000 1000 1000 1000 1000 1000 1000 1000 1000 1000 1000 1000 1000 1000 1000 1000 1000 1000.01 1000.01 1000.01 1000.01 1000.01 1000.01 1000 1000 1000 1000 1000 1000 1000 1000 1000 1000 1000 1000 1000 1000 1000 1000 1000 1000 1000 1000 1000 1000 1000 1000 1000 1000 1000 1000 1000 1000 1000 1000 1000 1000 1000 1000.01 1000.01 1000.01 1000.01 1000.01 1000.01 1000 1000 1000 1000 1000 1000 1000 1000 1000 1000 1000 1000 1000 1000 1000 1000 1000 1000 1000 1000 1000 1000 1000 1000 1000 1000 1000 1000 1000 1000 1000 1000 1000 1000 1000 1000.01 1000.01 1000.01 1000.01 1000.01 1000.01 1000 1000 1000 1000 1000 1000 1000 1000 1000 1000 1000 1000 1000 1000 1000 1000 1000 1000 1000 1000 1000 1000 1000 1000 1000 1000 1000 1000 1000 1000 1000 1000 1000 1000 1000 1000.01 1000.01 1000.01 1000.01 1000.01 1000.01 1000 1000 1000 1000 1000 1000 1000 1000 1000 1000 1000 1000 1000 1000 1000 1000 1000 1000 1000 1000 1000 1000 1000 1000 1000 1000 1000 1000 1000 1000 1000 1000 1000 1000 1000 1000.01 1000.01 1000.01 1000.01 1000.01 1000.01 1000 1000 1000 1000 1000 1000 1000 1000 1000 1000 1000 1000 1000 1000 1000 1000 1000 1000 1000 1000 1000 1000 1000 1000 1000 1000 1000 1000 1000 1000 1000 1000 1000 1000 1000 1000.01 1000.01 1000.01 1000.01 1000.01 1000.01 1000 1000 1000 1000 1000 1000 1000 1000 1000 1000 1000 1000 1000 1000 1000 1000 1000 1000 1000 1000 1000 1000 1000 1000 1000 1000 1000 1000 1000 1000 1000 1000 1000 1000 1000 1000.01 1000.01 1000.01 1000.01 1000.01 1000.01 1000 1000 1000 1000 1000 1000 1000 1000 1000 1000 1000 1000 1000 1000 1000 1000 1000 1000 1000 1000 1000 1000 1000 1000 1000 1000 1000 1000 1000 1000 1000 1000 1000 1000 1000 1000.01 1000.01 1000.01 1000.01 1000.01 1000.01 1000 1000 1000 1000 1000 1000 1000 1000 1000 1000 1000 1000 1000 1000 1000 1000 1000 1000 1000 1000 1000 1000 1000 1000 1000 1000 1000 1000 1000 1000 1000 1000 1000 1000 1000 1000.01 1000.01 1000.01 1000.01 1000.01 1000.01 1000 1000 1000 1000 1000 1000 1000 1000 1000 1000 1000 1000 1000 1000 1000 1000 1000 1000 1000 1000 1000 1000 1000 1000 1000 1000 1000 1000 1000 1000 1000 1000 1000 1000 1000 1000.01 1000.01 1000.01 1000.01 1000.01 1000.01 1000 1000 1000 1000 1000 1000 1000 1000 1000 1000 1000 1000 1000 1000 1000 1000 1000 1000 1000 1000 1000 1000 1000 1000 1000 1000 1000 1000 1000 1000 1000 1000 1000 1000 1000 1000.01 1000.01 1000.01 1000.01 1000.01 1000.01 1000 1000 1000 1000 1000 1000 1000 1000 1000 1000 1000 1000 1000 1000 1000 1000 1000 1000 1000 1000 1000 1000 1000 1000 1000 1000 1000 1000 1000 1000 1000 1000 1000 1000 1000 1000.01 1000.01 1000.01 1000.01 1000.01 1000.01 1000 1000 1000 1000 1000 1000 1000 1000 1000 1000 1000 1000 1000 1000 1000 1000 1000 1000 1000 1000 1000 1000 1000 1000 1000 1000 1000 1000 1000 1000 1000 1000 1000 1000 1000 1000.01 1000.01 1000.01 1000.01 1000.01 1000.01 1000 1000 1000 1000 1000 1000 1000 1000 1000 1000 1000 1000 1000 1000 1000 1000 1000 1000 1000 1000 1000 1000 1000 1000 1000 1000 1000 1000 1000 1000 1000 1000 1000 1000 1000 1000.01 1000.01 1000.01 1000.01 1000.01 1000.01 1000 1000 1000 1000 1000 1000 1000 1000 1000 1000 1000 1000 1000 1000 1000 1000 1000 1000 1000 1000 1000 1000 1000 1000 1000 1000 1000 1000 1000 1000 1000 1000 1000 1000 1000 1000.01 1000.01 1000.01 1000.01 1000.01 1000.01 1000 1000 1000 1000 1000 1000 1000 1000 1000 1000 1000 1000 1000 1000 1000 1000 1000 1000 1000 1000 1000 1000 1000 1000 1000 1000 1000 1000 1000 1000 1000 1000 1000 1000 1000 1000.01 1000.01 1000.01 1000.01 1000.01 1000.01 1000 1000 1000 1000 1000 1000 1000 1000 1000 1000 1000 1000 1000 1000 1000 1000 1000 1000 1000 1000 1000 1000 1000 1000 1000 1000 1000 1000 1000 1000 1000 1000 1000 1000 1000 1000.01 1000.01 1000.01 1000.01 1000.01 1000.01 1000 1000 1000 1000 1000 1000 1000 1000 1000 1000 1000 1000 1000 1000 1000 1000 1000 1000 1000 1000 1000 1000 1000 1000 1000 1000 1000 1000 1000 1000 1000 1000 1000 1000 1000 1000.01 1000.01 1000.01 1000.01 1000.01 1000.01 1000 1000 1000 1000 1000 1000 1000 1000 1000 1000 1000 1000 1000 1000 1000 1000 1000 1000 1000 1000 1000 1000 1000 1000 1000 1000 1000 1000 1000 1000 1000 1000 1000 1000 1000 1000.01 1000.01 1000.01 1000.02 1000.01 1000.01 1000.01 1000.01 1000 1000 1000 1000 1000 1000 1000 1000 1000 1000 1000 1000 1000 1000 1000 1000 1000 1000 1000 1000 1000 1000 1000 1000 1000 1000 1000 1000 1000 1000 1000 1000.01 1000.01 1000.01 1000.01 1000.02 1000.02 1000.02 1000.02 1000.01 1000.01 1000 1000 1000 1000 1000 1000 1000 1000 1000 1000 1000 1000 1000 1000 1000 1000 1000 1000 1000 1000 1000 1000 1000 1000 1000 1000 1000 1000 1000 1000 1000 1000.01 1000.01 1000.02 1000.02 1000.02 1000.02 1000.01 1000.02 1000.02 1000.01 1000.01 1000.01 1000.01 1000.01 1000.01 1000.01 1000.01 1000.01 1000.01 1000.01 1000.01 1000.01 1000.01 1000.01 1000.01 1000.01 1000.01 1000.01 1000.01 1000.01 1000.01 1000.01 1000.01 1000.01 1000.01 1000.01 1000.01 1000.01 1000.01 1000.01 1000.01 1000.01 1000.02 1000.02 1000.01 1000.02 1000.01 1000.01 1000.01 1000.02 1000.01 1000.01 1000.01 1000.01 1000.01 1000.01 1000.01 1000.01 1000.01 1000.01 1000.01 1000.01 1000.01 1000.01 1000.01 1000.01 1000.01 1000.01 1000.01 1000.01 1000.01 1000.01 1000.01 1000.01 1000.01 1000.01 1000.01 1000.01 1000.01 1000.01 1000.01 1000.01 1000.01 1000.02 1000.01 1000.01 1000.02 1000.02 1000.02 1000.02 1000.01 1000.01 1000.01 1000.01 1000.01 1000.01 1000.01 1000.01 1000.01 1000.01 1000.01 1000.01 1000.01 1000.01 1000.01 1000.01 1000.01 1000.01 1000.01 1000.01 1000.01 1000.01 1000.01 1000.01 1000.01 1000.01 1000.01 1000.01 1000.01 1000.01 1000.01 1000.01 1000.01 1000.02 1000.02 1000.02 1000.02 1000.02 1000 1000 1000 1000 1000 1000 1000 1000 1000 1000 1000 1000 1000 1000 1000 1000 1000 1000 1000 1000 1000 1000 1000 1000 1000 1000 1000 1000 1000 1000 1000 1000 1000 1000 1000 1000 1000 1000 1000 1000 1000 1000 1000 1000 1000 1000 1000 1000 1000 1000 1000 1000 1000 1000 1000 1000 1000 1000 1000 1000 1000 1000 1000 1000 1000 1000 1000 1000 1000 1000 1000 1000 1000 1000 1000 1000 1000 1000 1000 1000 1000 1000 1000 1000 1000 1000 1000 1000 1000 1000 1000 1000 1000 1000 1000 1000 1000 1000 1000 1000 1000 1000 1000 1000 1000 1000 1000 1000 1000 1000 1000 1000 1000 1000 1000 1000 1000 1000 1000 1000 1000 1000 1000 1000 1000 1000 1000 1000 1000 1000 1000 1000 1000 1000 1000 1000 1000 1000 1000 1000 1000 1000 1000 1000 1000 1000 1000 1000 1000 1000 1000 1000 1000 1000 1000 1000 1000 1000 1000 1000 1000 1000 1000 1000 1000 1000 1000 1000 1000 1000 1000 1000 1000 1000 1000 1000 1000 1000 1000 1000 1000 1000 1000 1000 1000 1000 1000 1000 1000 1000 1000 1000 1000 1000 1000 1000 1000 1000 1000 1000 1000 1000 1000 1000 1000 1000 1000 1000 1000 1000 1000 1000 1000 1000 1000 1000 1000 1000 1000 1000 1000 1000 1000 1000 1000 1000 1000 1000 1000 1000 1000 1000 1000 1000 1000 1000 1000 1000 1000 1000 1000 1000 1000 1000 1000 1000 1000 1000 1000 1000 1000 1000 1000 1000 1000 1000 1000 1000 1000 1000 1000 1000 1000 1000 1000 1000 1000 1000 1000 1000 1000 1000 1000 1000 1000 1000 1000 1000 1000 1000 1000 1000 1000 1000 1000 1000 1000 1000 1000 1000 1000 1000 1000 1000 1000 1000 1000 1000 1000 1000 1000 1000 1000 1000 1000 1000 1000 1000 1000 1000 1000 1000 1000 1000 1000 1000 1000 1000 1000 1000 1000 1000 1000 1000 1000 1000 1000 1000 
</DataArray>
<DataArray type="Float32" Name="Velocity" NumberOfComponents="3" format="ascii">
0.0043109097 0.0061177132 0
0.00037073329 0.0057778326 0
-4.5164899e-05 0.0054991506 0
8.4812738e-05 0.0048188502 0
5.3730771e-05 0.0041138427 0
1.6421864e-05 0.002919348 0
3.0489304e-07 0.0041277744 0
9.1090402e-07 0.0041277721 0
5.2153274e-07 0.00292821 0
3.2871026e-06 0.002926664 0
-9.1192146e-07 0.0041277725 0
9.9846375e-08 0.004127773 0
3.4655125e-07 0.0041277693 0
2.7219105e-10 0.0050352798 0
-4.2948383e-07 0.0041277716 0
1.1580718e-07 0.004127773 0
5.959796e-07 0.004127773 0
-7.1245461e-07 0.0041277776 0
1.1878793e-06 0.004127773 0
6.4990968e-07 0.0029189151 0
9.2418794e-08 0.0041277725 0
4.4492955e-07 0.0041277767 0
-7.3985893e-07 0.0029186744 0
5.9401498e-07 0.0029186744 0
-5.3126064e-07 0.004127773 0
9.4715453e-08 0.0041277721 0
4.5133676e-15 0.0029189414 0
-9.4715453e-08 0.0041277721 0
5.3126064e-07 0.004127773 0
-5.9402942e-07 0.0029186744 0
1.2225125e-07 0.0029186758 0
-5.9040235e-07 0.0041277739 0
5.9281325e-07 0.0041277739 0
-3.9665952e-06 0.0029187216 0
-7.808589e-07 0.0029186741 0
-1.8418839e-05 0.0041277781 0
-0.00011351352 0.0041032759 0
-0.00014021742 0.0029367483 0
-0.00085086038 0.0041316324 0
-0.00034284362 0.0039121518 0
-0.0045605334 0.0043824348 0
0.0041126423 0.0011066332 0
0.00082756841 0.0011483425 0
0.00023839343 0.00081984641 0
0.00021232812 0.00086094637 0
0.00011677881 0.0011101525 0
-1.937703e-07 0.00082879403 0
-2.1635497e-06 0.0011360293 0
1.7890219e-06 0.001136024 0
-8.0924889e-07 0.0010069618 0
2.3890126e-07 0.0010067645 0
-6.1490272e-07 0.0011360261 0
-1.5994635e-08 0.0011361222 0
2.2940706e-06 0.0011361196 0
-6.2252326e-07 0.0014162128 0
-5.8896069e-07 0.0011361211 0
-1.7472433e-07 0.0011361222 0
-1.3808685e-06 0.0011361222 0
-1.8490837e-07 0.0011361234 0
4.8426608e-07 0.0011360125 0
-6.9027051e-09 0.00082905695 0
8.594908e-07 0.0011360125 0
-9.9772808e-07 0.0011360155 0
-9.4437274e-07 0.0010068986 0
9.3171627e-07 0.0010068987 0
9.6680208e-07 0.0011360148 0
-8.9658863e-07 0.0011360121 0
6.1845636e-15 0.00082898705 0
8.9658863e-07 0.0011360121 0
-9.6680208e-07 0.0011360148 0
-9.3171627e-07 0.0010068987 0
9.6567658e-07 0.0010068966 0
-3.2346927e-07 0.0011360185 0
5.7614807e-07 0.0011360258 0
-8.789097e-07 0.0010068476 0
1.0739484e-06 0.0010068915 0
-1.2481786e-05 0.0011358942 0
-0.00011288331 0.0011273669 0
-0.00023012013 0.00078959344 0
-0.00039611483 0.00060096575 0
-0.00074594055 0.00075018604 0
-0.003821332 0.00028373656 0
0.0037621914 0.00053600181 0
0.00068110332 0.00047226006 0
0.00052672083 0.00026395664 0
0.00033862022 0.00013448649 0
9.4950185e-05 0.00016386053 0
1.5773539e-05 0.00015485992 0
7.7776176e-06 0.00016670214 0
1.2935888e-06 0.00016648459 0
1.3748387e-06 0.00016517997 0
3.7681439e-06 0.00016532908 0
2.4285652e-07 0.00016635664 0
2.0347802e-06 0.00016595668 0
2.3743844e-06 0.0001658566 0
4.233616e-06 0.0001526367 0
-3.0651243e-08 0.0001659418 0
1.9411054e-07 0.00016595685 0
1.10515e-06 0.00016595684 0
-2.6215966e-07 0.00016595697 0
4.8574009e-07 0.00016607478 0
-5.0673475e-07 0.0001555458 0
-1.8183808e-06 0.00016609451 0
-8.9373776e-07 0.00016613344 0
6.8418427e-07 0.00016540954 0
2.0318119e-07 0.00016542051 0
5.4231288e-07 0.0001661225 0
1.6556985e-06 0.0001660656 0
-1.9718671e-15 0.00015560926 0
-1.6556985e-06 0.0001660656 0
-5.4231288e-07 0.0001661225 0
-2.0318119e-07 0.00016542051 0
-6.0730627e-06 0.00016527857 0
-5.7845818e-06 0.00016626128 0
-3.0952278e-06 0.00016651943 0
-3.7792036e-06 0.00016498708 0
-2.5027778e-06 0.0001649192 0
-2.5502763e-06 0.00016675901 0
-9.7619093e-05 0.00016728797 0
-0.00034054212 0.00017188523 0
-0.00036850371 0.00036686988 0
-0.00055855466 0.00046920468 0
-0.003992239 0.00076032564 0
0.0041727321 0.00028499379 0
0.00093679893 0.00023889286 0
0.00039240118 0.00014959784 0
0.00011470392 8.0263984e-05 0
6.422845e-05 8.6069187e-05 0
5.777737e-06 3.196143e-05 0
3.5011305e-06 9.8102784e-05 0
2.7412304e-06 9.8033284e-05 0
1.0259623e-06 3.3791632e-05 0
6.3569651e-08 3.3802593e-05 0
1.8587537e-08 9.800613e-05 0
-2.9993245e-07 9.8005337e-05 0
-7.3603746e-07 9.7985605e-05 0
-5.8774964e-07 0.00010325637 0
-3.3292756e-07 9.7978482e-05 0
-4.3108483e-07 9.8005359e-05 0
1.2818358e-06 9.8005366e-05 0
2.0211121e-07 9.8004457e-05 0
5.1543884e-07 9.8002878e-05 0
6.3987778e-07 3.2066975e-05 0
4.5401706e-07 9.8009143e-05 0
3.9718452e-07 9.8006341e-05 0
-3.8973016e-07 3.3694232e-05 0
3.8827542e-07 3.3694305e-05 0
-4.0207462e-07 9.8006276e-05 0
2.3999121e-08 9.8006247e-05 0
-2.7212009e-15 3.2092936e-05 0
-2.3999121e-08 9.8006247e-05 0
4.0207462e-07 9.8006276e-05 0
-3.8827503e-07 3.3694305e-05 0
3.9269943e-07 3.3693908e-05 0
1.414582e-07 9.8006363e-05 0
-1.3156658e-07 9.8007265e-05 0
-4.015595e-07 3.372199e-05 0
-9.2279015e-06 3.3582935e-05 0
-1.3702856e-05 9.8122218e-05 0
-9.2356095e-05 6.5742301e-05 0
-0.00018507264 0.00012461789 0
-0.00014980941 0.0003030535 0
-0.0010377122 0.00019664811 0
-0.0041203434 0.00027145972 0
0.0041898489 0.00035069761 0
0.0010343217 8.6841537e-05 0
0.00024720503 0.00010691436 0
0.00016760135 0.00010581729 0
6.7943125e-05 4.0810715e-05 0
1.604145e-06 5.3144157e-07 0
4.7041061e-07 3.8493403e-05 0
3.7574378e-07 3.8491835e-05 0
5.6008054e-07 5.4071046e-07 0
-6.3440456e-07 5.4113366e-07 0
-4.2540211e-07 3.8491373e-05 0
-1.1500172e-07 3.8490482e-05 0
1.0366358e-06 3.8490274e-05 0
1.0996713e-10 8.1984261e-05 0
-1.0394947e-06 3.8490329e-05 0
-3.1112893e-07 3.8490496e-05 0
-1.8520034e-07 3.8490482e-05 0
2.5428443e-08 3.8490529e-05 0
3.9514518e-07 3.8492817e-05 0
5.6348586e-07 5.3648097e-07 0
-1.4420985e-07 3.8491493e-05 0
4.4196332e-07 3.8490987e-05 0
3.6810832e-07 5.414588e-07 0
-3.6810832e-07 5.4145903e-07 0
-4.4206664e-07 3.8490914e-05 0
1.377465e-07 3.8491478e-05 0
9.8054895e-16 5.3801057e-07 0
-1.377465e-07 3.8491478e-05 0
4.4206664e-07 3.8490914e-05 0
3.6810829e-07 5.4145903e-07 0
-3.6810846e-07 5.4145841e-07 0
3.3542655e-08 3.8490933e-05 0
-3.3542655e-08 3.8490933e-05 0
3.6764899e-07 5.4148029e-07 0
-1.3553166e-06 5.3906257e-07 0
-4.3027849e-06 3.8488179e-05 0
-7.4980759e-05 8.5158099e-05 0
-8.0366022e-05 6.8236106e-05 0
-0.00016969365 8.4769767e-05 0
-0.0011179907 0.00011829926 0
-0.0040806788 0.00015864737 0
0.0030613383 0.00016168143 0
0.00087511691 0.00022365058 0
0.00029955432 0.00015061216 0
3.7017177e-05 8.0428188e-05 0
2.6197727e-05 -5.9323025e-07 0
1.3116008e-06 1.9993318e-10 0
-3.7120151e-09 1.5245409e-06 0
4.7603659e-09 1.5245397e-06 0
-3.7732586e-15 3.4797568e-10 0
6.8439153e-15 3.4743616e-10 0
-4.7530295e-09 1.5245402e-06 0
4.6448543e-09 1.5245395e-06 0
-1.4550646e-07 1.5244726e-06 0
0 3.0179184e-05 0
1.4550646e-07 1.5244727e-06 0
-4.6357811e-09 1.5245395e-06 0
4.7621627e-09 1.5245395e-06 0
-4.7855733e-09 1.5245395e-06 0
4.7647455e-09 1.5245403e-06 0
-5.9564511e-16 3.4459258e-10 0
-4.7734652e-09 1.5245403e-06 0
4.7678457e-09 1.52454e-06 0
-6.276642e-15 3.47609e-10 0
6.2766437e-15 3.4760925e-10 0
-4.7678457e-09 1.52454e-06 0
4.7734652e-09 1.5245403e-06 0
0 3.4487108e-10 0
-4.7734652e-09 1.5245403e-06 0
4.7678457e-09 1.52454e-06 0
-6.2766437e-15 3.4760925e-10 0
6.276637e-15 3.4760878e-10 0
-4.7684696e-09 1.52454e-06 0
4.7684696e-09 1.52454e-06 0
-6.276858e-15 3.4761879e-10 0
8.0900981e-15 3.4661685e-10 0
-5.0018842e-09 1.5245388e-06 0
-5.3159897e-07 2.8182917e-06 0
-3.370253e-05 7.6139249e-06 0
-0.00016547453 1.8366349e-05 0
-0.0010062874 1.5998657e-07 0
-0.0029274314 1.8594717e-05 0
0.0041254936 2.1617885e-05 0
0.0011388061 2.5556352e-05 0
0.00017135416 4.4377375e-05 0
8.9605746e-05 1.5355417e-05 0
4.9824801e-05 1.1865136e-05 0
1.8856543e-06 -4.9514233e-09 0
-3.537306e-09 -3.6241139e-09 0
4.7746509e-09 -3.6241143e-09 0
0 -4.7746509e-09 0
0 -4.7746509e-09 0
-4.7746509e-09 -3.6241143e-09 0
4.7746509e-09 -3.6241143e-09 0
-4.774642e-09 -3.6241938e-09 0
0 9.1284397e-07 0
4.774642e-09 -3.6241938e-09 0
-4.7746509e-09 -3.6241143e-09 0
4.7746509e-09 -3.6241143e-09 0
-4.7746509e-09 -3.6241143e-09 0
4.7746509e-09 -3.6241143e-09 0
0 -4.7746509e-09 0
-4.7746562e-09 -3.6241139e-09 0
4.7746562e-09 -3.6241143e-09 0
0 -4.7746509e-09 0
0 -4.7746509e-09 0
-4.7746562e-09 -3.6241143e-09 0
4.7746562e-09 -3.6241139e-09 0
0 -4.7746509e-09 0
-4.7746562e-09 -3.6241139e-09 0
4.7746562e-09 -3.6241143e-09 0
0 -4.7746509e-09 0
0 -4.7746509e-09 0
-4.7746562e-09 -3.6241143e-09 0
4.7746562e-09 -3.6241143e-09 0
0 -4.7746509e-09 0
-1.0687764e-09 -4.7746509e-09 0
-1.5293093e-06 -3.6378798e-09 0
-3.8484362e-05 4.7090319e-07 0
-9.8121913e-05 3.315537e-06 0
-0.00016676266 1.063834e-05 0
-0.0011360132 -2.1932424e-06 0
-0.0041277669 2.9965355e-07 0
0.0041277716 8.4789253e-06 0
0.0011360247 5.4980655e-06 0
0.00016650889 1.6524452e-06 0
9.8073775e-05 6.4374049e-06 0
3.8492457e-05 1.7599078e-06 0
1.5245404e-06 4.7434958e-09 0
-3.6241143e-09 4.7746509e-09 0
4.7746509e-09 4.7746509e-09 0
0 4.7746509e-09 0
0 4.7746509e-09 0
-4.7746509e-09 4.7746509e-09 0
4.7746509e-09 4.7746509e-09 0
-4.7746509e-09 4.7746509e-09 0
0 5.23168e-09 0
4.7746509e-09 4.7746509e-09 0
-4.7746509e-09 4.7746509e-09 0
4.7746509e-09 4.7746509e-09 0
-4.7746509e-09 4.7746509e-09 0
4.7746509e-09 4.7746509e-09 0
0 4.7746509e-09 0
-4.7746562e-09 4.7746509e-09 0
4.7746562e-09 4.7746509e-09 0
0 4.7746509e-09 0
0 4.7746509e-09 0
-4.7746562e-09 4.7746509e-09 0
4.7746562e-09 4.7746509e-09 0
0 4.7746509e-09 0
-4.7746562e-09 4.7746509e-09 0
4.7746562e-09 4.7746509e-09 0
0 4.7746509e-09 0
0 4.7746509e-09 0