<?xml version="1.0" ?>

<VTKFile type="UnstructuredGrid" version="0.1" byte_order="BigEndian">

<UnstructuredGrid>

<Piece NumberOfPoints= " 2009 " NumberOfCells=" 2009 ">

<PointData Scalars="Pressure" Vectors="Velocity">

<DataArray type="Float32" Name="Pressure" format="ascii">

13.7335 13.4116 14.27 11.2657 8.04684 14.3773 6.54473 6.54473 7.40308 7.40308 6.54473 6.54473 6.54473 7.51037 6.54473 6.54473 6.54473 6.54473 6.54473 7.29579 6.54473 6.54473 7.40308 7.40308 6.54473 6.54473 7.29579 6.54473 6.54473 7.40308 7.40308 6.54473 6.54473 7.40308 7.51037 13.8408 8.58331 8.58331 14.3773 10.5146 13.0898 20.0643 19.4205 17.489 10.3 17.0598 7.40308 9.22708 9.22708 7.0812 7.0812 9.22708 9.11979 9.11979 7.93955 9.11979 9.11979 9.11979 9.11979 9.22708 4.07701 9.22708 9.22708 7.0812 7.0812 9.22708 9.22708 4.07701 9.22708 9.22708 7.0812 7.0812 9.22708 9.22708 7.0812 7.0812 13.4116 13.6262 8.04684 14.1627 14.6992 8.36873 19.2058 16.8452 17.489 9.76356 13.7335 9.76356 5.79368 5.79368 6.22285 6.22285 5.79368 5.79368 5.79368 2.78952 5.79368 5.79368 5.79368 5.79368 5.79368 4.50618 5.79368 5.79368 6.11556 6.11556 5.79368 5.79368 4.50618 5.79368 5.79368 6.11556 6.11556 5.79368 5.79368 6.22285 6.33015 10.4073 11.4803 6.86661 16.3087 12.7679 17.5963 14.1627 11.1584 9.65626 2.36036 6.22285 14.9138 2.03849 1.50204 7.29579 7.18849 1.39476 1.50204 1.39476 5.5791 1.39476 1.39476 1.39476 1.39476 1.39476 7.18849 1.39476 1.50204 7.18849 7.18849 1.39476 1.39476 7.18849 1.39476 1.39476 7.18849 7.18849 1.39476 1.39476 7.18849 7.29579 8.9052 6.22285 8.26143 8.36873 10.7292 9.97815 8.47602 9.76356 8.04684 0.75102 4.72076 6.54473 2.25307 2.14578 0.643732 0.643732 2.14578 2.14578 2.14578 0.107288 2.14578 2.14578 2.14578 2.14578 2.14578 0.643732 2.14578 2.14578 0.643732 0.643732 2.14578 2.14578 0.643732 2.14578 2.14578 0.643732 0.643732 2.14578 2.14578 0.643732 0.643732 7.51037 5.47181 4.1843 10.4073 12.446 9.65626 11.5876 5.79368 5.90098 10.1927 5.5791 1.07289 5.14993 5.14993 0 0 5.14993 5.14993 5.14993 0.858309 5.14993 5.14993 5.14993 5.14993 5.14993 0 5.14993 5.14993 0 0 5.14993 5.14993 0 5.14993 5.14993 0 0 5.14993 5.14993 0 0.429154 12.3387 6.11556 10.9438 11.5876 11.373 10.0854 7.18849 10.5146 8.69061 6.22285 2.78952 5.36451 0 0 0 0 0 0 0 7.0812 0 0 0 0 0 0 0 0 0 0 0 0 0 0 0 0 0 0 0 0 0 5.25722 2.25307 1.71662 5.79368 9.22708 6.65203 12.3387 14.27 14.27 2.36036 3.11139 10.7292 0 0 0 0 0 0 0 0 0 0 0 0 0 0 0 0 0 0 0 0 0 0 0 0 0 0 0 0 0 5.14993 2.14578 1.50204 5.79368 9.22708 6.54473 7.40308 7.0812 6.33015 7.29579 0.643732 0.965598 0 0 0 0 0 0 0 0 0 0 0 0 0 0 0 0 0 0 0 0 0 0 0 0 0 0 0 0 0 0 0.643732 7.29579 6.22285 7.0812 7.40308 7.40308 7.0812 6.22285 7.29579 0.643732 0 0 0 0 0 0 0 0 0 0 0 0 0 0 0 0 0 0 0 0 0 0 0 0 0 0 0 0 0 0 0 0.643732 7.18849 6.22285 7.0812 7.40308 6.54473 9.22708 5.79368 1.50204 2.14578 5.14993 0 0 0 0 0 0 0 0 0 0 0 0 0 0 0 0 0 0 0 0 0 0 0 0 0 0 0 0 0 5.14993 2.14578 1.50204 5.79368 9.22708 6.54473 6.54473 9.11979 5.79368 1.50204 2.14578 5.14993 0 0 0 0 0 0 0 0 0 0 0 0 0 0 0 0 0 0 0 0 0 0 0 0 0 0 0 0 0 5.14993 2.14578 1.50204 5.79368 9.11979 6.54473 6.54473 9.11979 5.79368 1.39476 2.14578 5.14993 0 0 0 0 0 0 0 0 0 0 0 0 0 0 0 0 0 0 0 0 0 0 0 0 0 0 0 0 0 5.14993 2.14578 1.39476 5.79368 9.11979 6.54473 7.51037 7.93955 2.78952 5.5791 0.107288 0.858309 7.0812 0 0 0 0 0 0 0 0 0 0 0 0 0 0 0 0 0 0 0 0 0 0 0 0 0 0 0 7.0812 0.858309 0.107288 5.5791 2.78952 7.93955 7.51037 6.54473 9.11979 5.79368 1.39476 2.14578 5.14993 0 0 0 0 0 0 0 0 0 0 0 0 0 0 0 0 0 0 0 0 0 0 0 0 0 0 0 0 0 5.14993 2.14578 1.39476 5.79368 9.11979 6.54473 6.54473 9.11979 5.79368 1.39476 2.14578 5.14993 0 0 0 0 0 0 0 0 0 0 0 0 0 0 0 0 0 0 0 0 0 0 0 0 0 0 0 0 0 5.14993 2.14578 1.39476 5.79368 9.11979 6.54473 6.54473 9.11979 5.79368 1.39476 2.14578 5.14993 0 0 0 0 0 0 0 0 0 0 0 0 0 0 0 0 0 0 0 0 0 0 0 0 0 0 0 0 0 5.14993 2.14578 1.39476 5.79368 9.11979 6.54473 6.54473 9.11979 5.79368 1.39476 2.14578 5.14993 0 0 0 0 0 0 0 0 0 0 0 0 0 0 0 0 0 0 0 0 0 0 0 0 0 0 0 0 0 5.14993 2.14578 1.39476 5.79368 9.11979 6.54473 6.54473 9.22708 5.79368 1.39476 2.14578 5.14993 0 0 0 0 0 0 0 0 0 0 0 0 0 0 0 0 0 0 0 0 0 0 0 0 0 0 0 0 0 5.14993 2.14578 1.39476 5.79368 9.22708 6.54473 7.29579 4.07701 4.50618 7.18849 0.643732 0 0 0 0 0 0 0 0 0 0 0 0 0 0 0 0 0 0 0 0 0 0 0 0 0 0 0 0 0 0 0 0.643732 7.18849 4.50618 4.07701 7.29579 6.54473 9.22708 5.79368 1.39476 2.14578 5.14993 0 0 0 0 0 0 0 0 0 0 0 0 0 0 0 0 0 0 0 0 0 0 0 0 0 0 0 0 0 5.14993 2.14578 1.39476 5.79368 9.22708 6.54473 6.54473 9.22708 5.79368 1.50204 2.14578 5.14993 0 0 0 0 0 0 0 0 0 0 0 0 0 0 0 0 0 0 0 0 0 0 0 0 0 0 0 0 0 5.14993 2.14578 1.50204 5.79368 9.22708 6.54473 7.40308 7.0812 6.11556 7.18849 0.643732 0 0 0 0 0 0 0 0 0 0 0 0 0 0 0 0 0 0 0 0 0 0 0 0 0 0 0 0 0 0 0 0.643732 7.18849 6.11556 7.0812 7.40308 7.40308 7.0812 6.11556 7.18849 0.643732 0 0 0 0 0 0 0 0 0 0 0 0 0 0 0 0 0 0 0 0 0 0 0 0 0 0 0 0 0 0 0 0.643732 7.18849 6.11556 7.0812 7.40308 6.54473 9.22708 5.79368 1.39476 2.14578 5.14993 0 0 0 0 0 0 0 0 0 0 0 0 0 0 0 0 0 0 0 0 0 0 0 0 0 0 0 0 0 5.14993 2.14578 1.39476 5.79368 9.22708 6.54473 6.54473 9.22708 5.79368 1.39476 2.14578 5.14993 0 0 0 0 0 0 0 0 0 0 0 0 0 0 0 0 0 0 0 0 0 0 0 0 0 0 0 0 0 5.14993 2.14578 1.39476 5.79368 9.22708 6.54473 7.29579 4.07701 4.50618 7.18849 0.643732 0 0 0 0 0 0 0 0 0 0 0 0 0 0 0 0 0 0 0 0 0 0 0 0 0 0 0 0 0 0 0 0.643732 7.18849 4.50618 4.07701 7.29579 6.54473 9.22708 5.79368 1.39476 2.14578 5.14993 0 0 0 0 0 0 0 0 0 0 0 0 0 0 0 0 0 0 0 0 0 0 0 0 0 0 0 0 0 5.14993 2.14578 1.39476 5.79368 9.22708 6.54473 6.54473 9.22708 5.79368 1.39476 2.14578 5.14993 0 0 0 0 0 0 0 0 0 0 0 0 0 0 0 0 0 0 0 0 0 0 0 0 0 0 0 0 0 5.14993 2.14578 1.39476 5.79368 9.22708 6.54473 7.40308 7.0812 6.11556 7.18849 0.643732 0 0 0 0 0 0 0 0 0 0 0 0 0 0 0 0 0 0 0 0 0 0 0 0 0 0 0 0 0 0 0 0.643732 7.18849 6.11556 7.0812 7.40308 7.40308 7.0812 6.11556 7.18849 0.643732 0 0 0 0 0 0 0 0 0 0 0 0 0 0 0 0 0 0 0 0 0 0 0 0 0 0 0 0 0 0 0 0.643732 7.18849 6.11556 7.0812 7.40308 6.54473 9.22708 5.79368 1.39476 2.14578 5.14993 0 0 0 0 0 0 0 0 0 0 0 0 0 0 0 0 0 0 0 0 0 0 0 0 0 0 0 0 0 5.14993 2.14578 1.39476 5.79368 9.22708 6.54473 6.54473 9.22708 5.79368 1.39476 2.14578 5.14993 0 0 0 0 0 0 0 0 0 0 0 0 0 0 0 0 0 0 0 0 0 0 0 0 0 0 0 0 0 5.14993 2.14578 1.39476 5.79368 9.22708 6.54473 7.40308 7.0812 6.22285 7.18849 0.643732 0 0 0 0 0 0 0 0 0 0 0 0 0 0 0 0 0 0 0 0 0 0 0 0 0 0 0 0 0 0 0 0.643732 7.29579 6.11556 7.0812 7.40308 7.51037 7.0812 6.33015 7.29579 0.643732 0.429154 0 0 0 0 0 0 0 7.0812 0 0 0 0 0 0 0 0 0 0 0 0 0 0 0 0 0 0 0 0 0 0 0.643732 7.29579 6.22285 7.0812 7.51037 13.8408 13.4116 10.4073 8.9052 7.51037 12.3387 5.25722 5.14993 0 0 5.14993 5.14993 5.14993 0.858309 5.14993 5.14993 5.14993 5.14993 5.14993 0 5.14993 5.14993 0 0 5.14993 5.14993 0 5.14993 5.14993 0 0 5.14993 5.14993 0 0 17.9182 7.40308 5.47181 11.1584 12.8752 16.6306 8.58331 13.6262 11.4803 6.22285 5.47181 6.11556 2.25307 2.14578 0.643732 0.643732 2.14578 2.14578 2.14578 0.107288 2.14578 2.14578 2.14578 2.14578 2.14578 0.643732 2.14578 2.14578 0.643732 0.643732 2.14578 2.14578 0.643732 2.14578 2.14578 0.643732 0.643732 2.14578 2.14578 0.643732 0.643732 7.40308 5.68639 4.82805 10.7292 12.5533 8.47602 8.58331 8.04684 6.86661 8.26143 4.1843 10.9438 1.71662 1.50204 7.29579 7.18849 1.50204 1.50204 1.39476 5.5791 1.39476 1.39476 1.39476 1.39476 1.39476 7.18849 1.39476 1.50204 7.18849 7.18849 1.39476 1.39476 7.18849 1.39476 1.39476 7.18849 7.18849 1.39476 1.39476 7.29579 7.29579 5.47181 4.82805 14.9138 7.40308 8.47602 15.2357 14.3773 14.1627 16.3087 8.36873 10.4073 11.5876 5.79368 5.79368 6.22285 6.22285 5.79368 5.79368 5.79368 2.78952 5.79368 5.79368 5.79368 5.79368 5.79368 4.50618 5.79368 5.79368 6.11556 6.11556 5.79368 5.79368 4.50618 5.79368 5.79368 6.11556 6.11556 5.79368 5.79368 6.11556 6.22285 11.1584 10.7292 7.40308 16.2014 14.4846 12.5533 10.5146 14.6992 12.7679 10.7292 12.446 11.373 9.22708 9.22708 7.0812 7.0812 9.22708 9.11979 9.11979 7.93955 9.11979 9.11979 9.11979 9.11979 9.22708 4.07701 9.22708 9.22708 7.0812 7.0812 9.22708 9.22708 4.07701 9.22708 9.22708 7.0812 7.0812 9.22708 9.22708 7.0812 7.0812 12.8752 12.5533 8.47602 14.4846 15.2357 8.15414 13.0898 8.36873 17.5963 9.97815 9.65626 10.0854 6.65203 6.54473 7.40308 7.40308 6.54473 6.54473 6.54473 7.51037 6.54473 6.54473 6.54473 6.54473 6.54473 7.29579 6.54473 6.54473 7.40308 7.40308 6.54473 6.54473 7.29579 6.54473 6.54473 7.40308 7.40308 6.54473 6.54473 7.40308 7.51037 16.6306 8.47602 15.2357 12.5533 8.15414 17.8109 0.1 0.1 0.1 0.1 0.1 0.1 0.1 0.1 0.1 0.1 0.1 0.1 0.1 0.1 0.1 0.1 0.1 0.1 0.1 0.1 0.1 0.1 0.1 0.1 0.1 0.1 0.1 0.1 0.1 0.1 0.1 0.1 0.1 0.1 0.1 0.1 0.1 0.1 0.1 0.1 0.1 0.1 0.1 0.1 0.1 0.1 0.1 0.1 0.1 0.1 0.1 0.1 0.1 0.1 0.1 0.1 0.1 0.1 0.1 0.1 0.1 0.1 0.1 0.1 0.1 0.1 0.1 0.1 0.1 0.1 0.1 0.1 0.1 0.1 0.1 0.1 0.1 0.1 0.1 0.1 0.1 0.1 0.1 0.1 0.1 0.1 0.1 0.1 0.1 0.1 0.1 0.1 0.1 0.1 0.1 0.1 0.1 0.1 0.1 0.1 0.1 0.1 0.1 0.1 0.1 0.1 0.1 0.1 0.1 0.1 0.1 0.1 0.1 0.1 0.1 0.1 0.1 0.1 0.1 0.1 0.1 0.1 0.1 0.1 0.1 0.1 0.1 0.1 0.1 0.1 0.1 0.1 0.1 0.1 0.1 0.1 0.1 0.1 0.1 0.1 0.1 0.1 0.1 0.1 0.1 0.1 0.1 0.1 0.1 0.1 0.1 0.1 0.1 0.1 0.1 0.1 0.1 0.1 0.1 0.1 0.1 0.1 0.1 0.1 0.1 0.1 0.1 0.1 0.1 0.1 0.1 0.1 0.1 0.1 0.1 0.1 0.1 0.1 0.1 0.1 0.1 0.1 0.1 0.1 0.1 0.1 0.1 0.1 0.1 0.1 0.1 0.1 0.1 0.1 0.1 0.1 0.1 0.1 0.1 0.1 0.1 0.1 0.1 0.1 0.1 0.1 0.1 0.1 0.1 0.1 0.1 0.1 0.1 0.1 0.1 0.1 0.1 0.1 0.1 0.1 0.1 0.1 0.1 0.1 0.1 0.1 0.1 0.1 0.1 0.1 0.1 0.1 0.1 0.1 0.1 0.1 0.1 0.1 0.1 0.1 0.1 0.1 0.1 0.1 0.1 0.1 0.1 0.1 0.1 0.1 0.1 0.1 0.1 0.1 0.1 0.1 0.1 0.1 0.1 0.1 0.1 0.1 0.1 0.1 0.1 0.1 0.1 0.1 0.1 0.1 0.1 0.1 0.1 0.1 0.1 0.1 0.1 0.1 0.1 0.1 0.1 0.1 0.1 0.1 0.1 0.1 0.1 0.1 0.1 0.1 0.1 0.1 0.1 0.1 0.1 0.1 0.1 0.1 0.1 0.1 0.1 0.1 0.1 0.1 0.1 0.1 0.1 0.1 0.1 0.1 0.1 0.1 0.1 0.1 0.1 0.1 0.1 0.1 0.1 0.1 0.1 0.1 0.1 0.1 0.1 0.1 0.1 0.1 
</DataArray>

<DataArray type="Float32" Name="Density" format="ascii">
1000.02 1000.01 1000.02 1000.01 1000.01 1000.02 1000.01 1000.01 1000.01 1000.01 1000.01 1000.01 1000.01 1000.01 1000.01 1000.01 1000.01 1000.01 1000.01 1000.01 1000.01 1000.01 1000.01 1000.01 1000.01 1000.01 1000.01 1000.01 1000.01 1000.01 1000.01 1000.01 1000.01 1000.01 1000.01 1000.02 1000.01 1000.01 1000.02 1000.01 1000.01 1000.02 1000.02 1000.02 1000.01 1000.02 1000.01 1000.01 1000.01 1000.01 1000.01 1000.01 1000.01 1000.01 1000.01 1000.01 1000.01 1000.01 1000.01 1000.01 1000 1000.01 1000.01 1000.01 1000.01 1000.01 1000.01 1000 1000.01 1000.01 1000.01 1000.01 1000.01 1000.01 1000.01 1000.01 1000.01 1000.02 1000.01 1000.02 1000.02 1000.01 1000.02 1000.02 1000.02 1000.01 1000.02 1000.01 1000.01 1000.01 1000.01 1000.01 1000.01 1000.01 1000.01 1000 1000.01 1000.01 1000.01 1000.01 1000.01 1000.01 1000.01 1000.01 1000.01 1000.01 1000.01 1000.01 1000.01 1000.01 1000.01 1000.01 1000.01 1000.01 1000.01 1000.01 1000.01 1000.01 1000.01 1000.01 1000.02 1000.01 1000.02 1000.02 1000.01 1000.01 1000 1000.01 1000.02 1000 1000 1000.01 1000.01 1000 1000 1000 1000.01 1000 1000 1000 1000 1000 1000.01 1000 1000 1000.01 1000.01 1000 1000 1000.01 1000 1000 1000.01 1000.01 1000 1000 1000.01 1000.01 1000.01 1000.01 1000.01 1000.01 1000.01 1000.01 1000.01 1000.01 1000.01 1000 1000.01 1000.01 1000 1000 1000 1000 1000 1000 1000 1000 1000 1000 1000 1000 1000 1000 1000 1000 1000 1000 1000 1000 1000 1000 1000 1000 1000 1000 1000 1000 1000 1000.01 1000.01 1000 1000.01 1000.01 1000.01 1000.01 1000.01 1000.01 1000.01 1000.01 1000 1000.01 1000.01 1000 1000 1000.01 1000.01 1000.01 1000 1000.01 1000.01 1000.01 1000.01 1000.01 1000 1000.01 1000.01 1000 1000 1000.01 1000.01 1000 1000.01 1000.01 1000 1000 1000.01 1000.01 1000 1000 1000.01 1000.01 1000.01 1000.01 1000.01 1000.01 1000.01 1000.01 1000.01 1000.01 1000 1000.01 1000 1000 1000 1000 1000 1000 1000 1000.01 1000 1000 1000 1000 1000 1000 1000 1000 1000 1000 1000 1000 1000 1000 1000 1000 1000 1000 1000 1000 1000 1000.01 1000 1000 1000.01 1000.01 1000.01 1000.01 1000.02 1000.02 1000 1000 1000.01 1000 1000 1000 1000 1000 1000 1000 1000 1000 1000 1000 1000 1000 1000 1000 1000 1000 1000 1000 1000 1000 1000 1000 1000 1000 1000 1000 1000 1000 1000.01 1000 1000 1000.01 1000.01 1000.01 1000.01 1000.01 1000.01 1000.01 1000 1000 1000 1000 1000 1000 1000 1000 1000 1000 1000 1000 1000 1000 1000 1000 1000 1000 1000 1000 1000 1000 1000 1000 1000 1000 1000 1000 1000 1000 1000 1000 1000 1000.01 1000.01 1000.01 1000.01 1000.01 1000.01 1000.01 1000.01 1000 1000 1000 1000 1000 1000 1000 1000 1000 1000 1000 1000 1000 1000 1000 1000 1000 1000 1000 1000 1000 1000 1000 1000 1000 1000 1000 1000 1000 1000 1000 1000 1000 1000.01 1000.01 1000.01 1000.01 1000.01 1000.01 1000.01 1000 1000 1000.01 1000 1000 1000 1000 1000 1000 1000 1000 1000 1000 1000 1000 1000 1000 1000 1000 1000 1000 1000 1000 1000 1000 1000 1000 1000 1000 1000 1000 1000 1000.01 1000 1000 1000.01 1000.01 1000.01 1000.01 1000.01 1000.01 1000 1000 1000.01 1000 1000 1000 1000 1000 1000 1000 1000 1000 1000 1000 1000 1000 1000 1000 1000 1000 1000 1000 1000 1000 1000 1000 1000 1000 1000 1000 1000 1000 1000.01 1000 1000 1000.01 1000.01 1000.01 1000.01 1000.01 1000.01 1000 1000 1000.01 1000 1000 1000 1000 1000 1000 1000 1000 1000 1000 1000 1000 1000 1000 1000 1000 1000 1000 1000 1000 1000 1000 1000 1000 1000 1000 1000 1000 1000 1000.01 1000 1000 1000.01 1000.01 1000.01 1000.01 1000.01 1000 1000.01 1000 1000 1000.01 1000 1000 1000 1000 1000 1000 1000 1000 1000 1000 1000 1000 1000 1000 1000 1000 1000 1000 1000 1000 1000 1000 1000 1000 1000 1000 1000 1000.01 1000 1000 1000.01 1000 1000.01 1000.01 1000.01 1000.01 1000.01 1000 1000 1000.01 1000 1000 1000 1000 1000 1000 1000 1000 1000 1000 1000 1000 1000 1000 1000 1000 1000 1000 1000 1000 1000 1000 1000 1000 1000 1000 1000 1000 1000 1000.01 1000 1000 1000.01 1000.01 1000.01 1000.01 1000.01 1000.01 1000 1000 1000.01 1000 1000 1000 1000 1000 1000 1000 1000 1000 1000 1000 1000 1000 1000 1000 1000 1000 1000 1000 1000 1000 1000 1000 1000 1000 1000 1000 1000 1000 1000.01 1000 1000 1000.01 1000.01 1000.01 1000.01 1000.01 1000.01 1000 1000 1000.01 1000 1000 1000 1000 1000 1000 1000 1000 1000 1000 1000 1000 1000 1000 1000 1000 1000 1000 1000 1000 1000 1000 1000 1000 1000 1000 1000 1000 1000 1000.01 1000 1000 1000.01 1000.01 1000.01 1000.01 1000.01 1000.01 1000 1000 1000.01 1000 1000 1000 1000 1000 1000 1000 1000 1000 1000 1000 1000 1000 1000 1000 1000 1000 1000 1000 1000 1000 1000 1000 1000 1000 1000 1000 1000 1000 1000.01 1000 1000 1000.01 1000.01 1000.01 1000.01 1000.01 1000.01 1000 1000 1000.01 1000 1000 1000 1000 1000 1000 1000 1000 1000 1000 1000 1000 1000 1000 1000 1000 1000 1000 1000 1000 1000 1000 1000 1000 1000 1000 1000 1000 1000 1000.01 1000 1000 1000.01 1000.01 1000.01 1000.01 1000 1000.01 1000.01 1000 1000 1000 1000 1000 1000 1000 1000 1000 1000 1000 1000 1000 1000 1000 1000 1000 1000 1000 1000 1000 1000 1000 1000 1000 1000 1000 1000 1000 1000 1000 1000 1000 1000.01 1000.01 1000 1000.01 1000.01 1000.01 1000.01 1000 1000 1000.01 1000 1000 1000 1000 1000 1000 1000 1000 1000 1000 1000 1000 1000 1000 1000 1000 1000 1000 1000 1000 1000 1000 1000 1000 1000 1000 1000 1000 1000 1000.01 1000 1000 1000.01 1000.01 1000.01 1000.01 1000.01 1000.01 1000 1000 1000.01 1000 1000 1000 1000 1000 1000 1000 1000 1000 1000 1000 1000 1000 1000 1000 1000 1000 1000 1000 1000 1000 1000 1000 1000 1000 1000 1000 1000 1000 1000.01 1000 1000 1000.01 1000.01 1000.01 1000.01 1000.01 1000.01 1000.01 1000 1000 1000 1000 1000 1000 1000 1000 1000 1000 1000 1000 1000 1000 1000 1000 1000 1000 1000 1000 1000 1000 1000 1000 1000 1000 1000 1000 1000 1000 1000 1000 1000 1000.01 1000.01 1000.01 1000.01 1000.01 1000.01 1000.01 1000.01 1000 1000 1000 1000 1000 1000 1000 1000 1000 1000 1000 1000 1000 1000 1000 1000 1000 1000 1000 1000 1000 1000 1000 1000 1000 1000 1000 1000 1000 1000 1000 1000 1000 1000.01 1000.01 1000.01 1000.01 1000.01 1000.01 1000.01 1000 1000 1000.01 1000 1000 1000 1000 1000 1000 1000 1000 1000 1000 1000 1000 1000 1000 1000 1000 1000 1000 1000 1000 1000 1000 1000 1000 1000 1000 1000 1000 1000 1000.01 1000 1000 1000.01 1000.01 1000.01 1000.01 1000.01 1000.01 1000 1000 1000.01 1000 1000 1000 1000 1000 1000 1000 1000 1000 1000 1000 1000 1000 1000 1000 1000 1000 1000 1000 1000 1000 1000 1000 1000 1000 1000 1000 1000 1000 1000.01 1000 1000 1000.01 1000.01 1000.01 1000.01 1000 1000.01 1000.01 1000 1000 1000 1000 1000 1000 1000 1000 1000 1000 1000 1000 1000 1000 1000 1000 1000 1000 1000 1000 1000 1000 1000 1000 1000 1000 1000 1000 1000 1000 1000 1000 1000 1000.01 1000.01 1000 1000.01 1000.01 1000.01 1000.01 1000 1000 1000.01 1000 1000 1000 1000 1000 1000 1000 1000 1000 1000 1000 1000 1000 1000 1000 1000 1000 1000 1000 1000 1000 1000 1000 1000 1000 1000 1000 1000 1000 1000.01 1000 1000 1000.01 1000.01 1000.01 1000.01 1000.01 1000.01 1000 1000 1000.01 1000 1000 1000 1000 1000 1000 1000 1000 1000 1000 1000 1000 1000 1000 1000 1000 1000 1000 1000 1000 1000 1000 1000 1000 1000 1000 1000 1000 1000 1000.01 1000 1000 1000.01 1000.01 1000.01 1000.01 1000.01 1000.01 1000.01 1000 1000 1000 1000 1000 1000 1000 1000 1000 1000 1000 1000 1000 1000 1000 1000 1000 1000 1000 1000 1000 1000 1000 1000 1000 1000 1000 1000 1000 1000 1000 1000 1000 1000.01 1000.01 1000.01 1000.01 1000.01 1000.01 1000.01 1000.01 1000 1000 1000 1000 1000 1000 1000 1000 1000 1000 1000 1000 1000 1000 1000 1000 1000 1000 1000 1000 1000 1000 1000 1000 1000 1000 1000 1000 1000 1000 1000 1000 1000 1000.01 1000.01 1000.01 1000.01 1000.01 1000.01 1000.01 1000 1000 1000.01 1000 1000 1000 1000 1000 1000 1000 1000 1000 1000 1000 1000 1000 1000 1000 1000 1000 1000 1000 1000 1000 1000 1000 1000 1000 1000 1000 1000 1000 1000.01 1000 1000 1000.01 1000.01 1000.01 1000.01 1000.01 1000.01 1000 1000 1000.01 1000 1000 1000 1000 1000 1000 1000 1000 1000 1000 1000 1000 1000 1000 1000 1000 1000 1000 1000 1000 1000 1000 1000 1000 1000 1000 1000 1000 1000 1000.01 1000 1000 1000.01 1000.01 1000.01 1000.01 1000.01 1000.01 1000.01 1000 1000 1000 1000 1000 1000 1000 1000 1000 1000 1000 1000 1000 1000 1000 1000 1000 1000 1000 1000 1000 1000 1000 1000 1000 1000 1000 1000 1000 1000 1000 1000 1000 1000.01 1000.01 1000.01 1000.01 1000.01 1000.01 1000.01 1000.01 1000 1000 1000 1000 1000 1000 1000 1000 1000 1000.01 1000 1000 1000 1000 1000 1000 1000 1000 1000 1000 1000 1000 1000 1000 1000 1000 1000 1000 1000 1000 1000 1000 1000 1000.01 1000.01 1000.01 1000.01 1000.02 1000.01 1000.01 1000.01 1000.01 1000.01 1000.01 1000.01 1000 1000 1000.01 1000.01 1000.01 1000 1000.01 1000.01 1000.01 1000.01 1000.01 1000 1000.01 1000.01 1000 1000 1000.01 1000.01 1000 1000.01 1000.01 1000 1000 1000.01 1000.01 1000 1000 1000.02 1000.01 1000.01 1000.01 1000.01 1000.02 1000.01 1000.02 1000.01 1000.01 1000.01 1000.01 1000 1000 1000 1000 1000 1000 1000 1000 1000 1000 1000 1000 1000 1000 1000 1000 1000 1000 1000 1000 1000 1000 1000 1000 1000 1000 1000 1000 1000 1000.01 1000.01 1000.01 1000.01 1000.01 1000.01 1000.01 1000.01 1000.01 1000.01 1000 1000.01 1000 1000 1000.01 1000.01 1000 1000 1000 1000.01 1000 1000 1000 1000 1000 1000.01 1000 1000 1000.01 1000.01 1000 1000 1000.01 1000 1000 1000.01 1000.01 1000 1000 1000.01 1000.01 1000.01 1000.01 1000.02 1000.01 1000.01 1000.02 1000.02 1000.02 1000.02 1000.01 1000.01 1000.01 1000.01 1000.01 1000.01 1000.01 1000.01 1000.01 1000.01 1000 1000.01 1000.01 1000.01 1000.01 1000.01 1000.01 1000.01 1000.01 1000.01 1000.01 1000.01 1000.01 1000.01 1000.01 1000.01 1000.01 1000.01 1000.01 1000.01 1000.01 1000.01 1000.01 1000.01 1000.01 1000.02 1000.02 1000.01 1000.01 1000.02 1000.01 1000.01 1000.01 1000.01 1000.01 1000.01 1000.01 1000.01 1000.01 1000.01 1000.01 1000.01 1000.01 1000.01 1000.01 1000.01 1000.01 1000 1000.01 1000.01 1000.01 1000.01 1000.01 1000.01 1000 1000.01 1000.01 1000.01 1000.01 1000.01 1000.01 1000.01 1000.01 1000.01 1000.01 1000.01 1000.02 1000.02 1000.01 1000.01 1000.01 1000.02 1000.01 1000.01 1000.01 1000.01 1000.01 1000.01 1000.01 1000.01 1000.01 1000.01 1000.01 1000.01 1000.01 1000.01 1000.01 1000.01 1000.01 1000.01 1000.01 1000.01 1000.01 1000.01 1000.01 1000.01 1000.01 1000.01 1000.01 1000.01 1000.01 1000.01 1000.01 1000.01 1000.02 1000.01 1000.02 1000.01 1000.01 1000.02 1000 1000 1000 1000 1000 1000 1000 1000 1000 1000 1000 1000 1000 1000 1000 1000 1000 1000 1000 1000 1000 1000 1000 1000 1000 1000 1000 1000 1000 1000 1000 1000 1000 1000 1000 1000 1000 1000 1000 1000 1000 1000 1000 1000 1000 1000 1000 1000 1000 1000 1000 1000 1000 1000 1000 1000 1000 1000 1000 1000 1000 1000 1000 1000 1000 1000 1000 1000 1000 1000 1000 1000 1000 1000 1000 1000 1000 1000 1000 1000 1000 1000 1000 1000 1000 1000 1000 1000 1000 1000 1000 1000 1000 1000 1000 1000 1000 1000 1000 1000 1000 1000 1000 1000 1000 1000 1000 1000 1000 1000 1000 1000 1000 1000 1000 1000 1000 1000 1000 1000 1000 1000 1000 1000 1000 1000 1000 1000 1000 1000 1000 1000 1000 1000 1000 1000 1000 1000 1000 1000 1000 1000 1000 1000 1000 1000 1000 1000 1000 1000 1000 1000 1000 1000 1000 1000 1000 1000 1000 1000 1000 1000 1000 1000 1000 1000 1000 1000 1000 1000 1000 1000 1000 1000 1000 1000 1000 1000 1000 1000 1000 1000 1000 1000 1000 1000 1000 1000 1000 1000 1000 1000 1000 1000 1000 1000 1000 1000 1000 1000 1000 1000 1000 1000 1000 1000 1000 1000 1000 1000 1000 1000 1000 1000 1000 1000 1000 1000 1000 1000 1000 1000 1000 1000 1000 1000 1000 1000 1000 1000 1000 1000 1000 1000 1000 1000 1000 1000 1000 1000 1000 1000 1000 1000 1000 1000 1000 1000 1000 1000 1000 1000 1000 1000 1000 1000 1000 1000 1000 1000 1000 1000 1000 1000 1000 1000 1000 1000 1000 1000 1000 1000 1000 1000 1000 1000 1000 1000 1000 1000 1000 1000 1000 1000 1000 1000 1000 1000 1000 1000 1000 1000 1000 1000 1000 1000 1000 1000 1000 1000 1000 1000 1000 1000 1000 1000 1000 1000 1000 1000 1000 1000 1000 1000 1000 1000 1000 1000 1000 1000 1000 1000 1000 1000 1000 1000 1000 1000 
</DataArray>
<DataArray type="Float32" Name="Velocity" NumberOfComponents="3" format="ascii">
0.0043166992 0.005963318 0
0.00010231085 0.0058381148 0
-0.00020261803 0.0053632022 0
0.00018923281 0.0047328621 0
6.3762644e-05 0.0040058536 0
0.00010298473 0.0028697676 0
6.1575417e-07 0.0040504998 0
7.4184959e-07 0.0040504923 0
1.682894e-06 0.0028936232 0
2.013295e-06 0.0028922169 0
-8.5419146e-07 0.0040504881 0
1.5750032e-07 0.0040505002 0
6.5430619e-08 0.0040504956 0
2.7219105e-10 0.00492477 0
-1.2963644e-06 0.0040504984 0
-2.8305994e-08 0.0040505012 0
-8.3188951e-08 0.0040505012 0
3.7282388e-07 0.0040505058 0
1.1552385e-06 0.0040504825 0
1.307457e-06 0.0028738668 0
2.360218e-07 0.0040504998 0
3.0512348e-07 0.0040505035 0
1.8252665e-07 0.0028849987 0
-1.3035822e-07 0.0028850066 0
-3.985173e-07 0.0040505002 0
-1.2800457e-07 0.0040505007 0
2.9114108e-10 0.0028739406 0
1.2800459e-07 0.0040505007 0
3.985173e-07 0.0040505002 0
1.5424969e-07 0.0028850066 0
-1.0343794e-06 0.002884815 0
-5.2621255e-07 0.0040505002 0
5.2862288e-07 0.0040505002 0
-6.9835501e-06 0.0028849726 0
-3.1174118e-06 0.0028844038 0
-0.00018195367 0.004020595 0
-8.2702609e-05 0.0039472561 0
-0.00011468243 0.0029277662 0
-0.0010081764 0.0040836208 0
-0.00011285604 0.0038590049 0
-0.0045709647 0.0044414434 0
0.0041568517 0.0011875306 0
0.00074352761 0.001229136 0
0.00018030975 0.00063208479 0
9.9517689e-05 0.00072563201 0
0.00030476658 0.0009022525 0
3.7361337e-05 0.00073876465 0
1.2314804e-05 0.0011156064 0
1.207569e-05 0.0011154993 0
-1.3046248e-06 0.00091904617 0
8.0926227e-08 0.00091882941 0
3.6449023e-06 0.0011155569 0
2.7467947e-06 0.0011157355 0
6.1794117e-06 0.0011158192 0
-6.761905e-07 0.0014104991 0
2.7762192e-06 0.0011156782 0
-1.1999435e-07 0.0011157967 0
-4.7082943e-07 0.0011158189 0
3.7282946e-06 0.0011158022 0
4.52942e-06 0.0011157137 0
-4.2067807e-09 0.00077230489 0
-1.2932978e-06 0.0011157073 0
-6.9198126e-07 0.0011156625 0
-1.1943999e-06 0.00091852958 0
1.1392051e-06 0.00091853022 0
1.1345363e-06 0.00111568 0
2.1475937e-06 0.0011156711 0
3.5854042e-09 0.00077217811 0
-3.8167782e-06 0.0011156864 0
-2.4129872e-06 0.0011156653 0
-8.822027e-07 0.00091852329 0
1.5191245e-06 0.0009185138 0
-7.9569018e-06 0.0011155155 0
-5.4510679e-06 0.0011154766 0
-6.4467554e-07 0.00091828039 0
6.0105333e-07 0.00091822405 0
-0.00013694176 0.0011083722 0
-0.00016297882 0.0010864354 0
-0.00019820072 0.00063825527 0
-0.00043270577 0.00045327569 0
-0.00062851864 0.00063672388 0
-0.0038108462 4.1669402e-05 0
0.0035594164 0.00062464189 0
0.00039975828 0.00038256374 0
0.00066938787 0.00016317578 0
0.00030285903 0.00013087364 0
0.00020317546 -4.7724279e-05 0
0.00011451104 0.00011339472 0
1.7473438e-06 0.00015231139 0
7.9887495e-06 0.000151742 0
2.2306738e-06 0.00017442989 0
3.7122954e-06 0.00017496428 0
2.4409637e-06 0.0001513801 0
-3.7385421e-06 0.00015084217 0
-5.1128568e-06 0.00015051886 0
-8.8600194e-07 0.00010276437 0
1.0914055e-06 0.00015072517 0
2.8261375e-06 0.00015081262 0
-4.517008e-07 0.00015079186 0
2.7729507e-06 0.00015080109 0
-1.0571227e-08 0.00015083933 0
2.0063612e-06 0.0001492217 0
-1.1618932e-06 0.00015082701 0
2.1183494e-06 0.00015082739 0
-4.4010908e-06 0.00017541974 0
3.6980496e-06 0.00017543326 0
-1.789474e-06 0.00015081196 0
-3.6478019e-07 0.00015086947 0
-3.0077781e-06 0.00014903744 0
-3.5759135e-06 0.00015096195 0
-3.3748149e-06 0.00015117918 0
5.1728227e-07 0.00017507585 0
-9.4067218e-07 0.00017496322 0
1.2936073e-06 0.00015137735 0
-4.4777289e-06 0.00015163865 0
-3.0021081e-06 0.00017469756 0
-2.1121445e-05 0.00017389952 0
-9.9013698e-05 0.00013607934 0
-0.00012811909 0.00011235104 0
-0.00029021152 0.00016835265 0
-0.00039667115 0.00041300664 0
-0.000390139 0.00050592271 0
-0.0039466526 0.00088892347 0
0.004090108 0.00037539119 0
0.00086870108 0.00032373157 0
0.00046930945 0.00028746232 0
0.00010025932 0.00012394988 0
6.1009243e-05 0.00019372637 0
8.9478584e-05 0.00012911246 0
1.9330577e-05 0.00011475669 0
-3.1677669e-06 0.00011424548 0
4.4153185e-06 0.00013127984 0
-4.9943066e-07 0.00013127303 0
6.7835222e-06 0.00011408373 0
3.3935169e-08 0.00011373851 0
3.1314372e-07 0.00011369601 0
-3.8068737e-07 0.0001514622 0
-3.3343619e-07 0.00011369203 0
-4.3636388e-07 0.0001137195 0
2.9519799e-07 0.00011371956 0
5.2851595e-07 0.00011371866 0
3.1317276e-07 0.00011387273 0
8.5409226e-07 0.00012571027 0
-1.1251846e-06 0.0001138728 0
-3.2815256e-06 0.00011400897 0
9.7783868e-07 0.00013121795 0
-5.4420332e-07 0.00013122807 0
3.7626749e-06 0.00011398139 0
4.7428443e-07 0.00011386963 0
4.8277654e-10 0.0001258641 0
-4.7046234e-07 0.00011386979 0
-3.755918e-06 0.00011398221 0
5.5978632e-07 0.00013122696 0
-4.5262638e-08 0.0001314063 0
3.4274619e-06 0.00011404695 0
-7.0090432e-06 0.00011413496 0
-1.1246699e-05 0.00013148513 0
-5.4192246e-06 0.0001313488 0
-7.5881486e-05 0.00012101163 0
-0.00014656479 0.00011182828 0
-0.00019980864 0.00022954306 0
-0.00014008909 0.00030446664 0
-0.00098902453 0.00011450156 0
-0.0040677059 0.00026115918 0
0.0041595697 0.00048859097 0
0.00098427862 0.00010148089 0
0.00026560455 0.00012101347 0
0.00014145528 7.6644748e-05 0
9.3123403e-05 8.016362e-05 0
6.7208239e-05 1.7239123e-05 0
5.6082063e-06 8.2023435e-05 0
4.9804316e-06 8.1724116e-05 0
2.9169314e-06 1.5389864e-05 0
-1.0140335e-06 1.5299129e-05 0
-8.9848885e-07 8.1698046e-05 0
-4.3782424e-07 8.1667378e-05 0
-8.296464e-08 8.1618586e-05 0
-1.9375705e-07 7.3703814e-05 0
-3.6791064e-07 8.1615421e-05 0
1.9039543e-07 8.1651604e-05 0
1.0240482e-07 8.1650775e-05 0
4.6997096e-07 8.1650964e-05 0
9.678389e-07 8.1689708e-05 0
5.3729752e-07 1.4756241e-05 0
1.0594086e-07 8.1664133e-05 0
8.8788914e-07 8.1675826e-05 0
5.8683162e-07 1.4834912e-05 0
-5.8680337e-07 1.4834932e-05 0
-2.2901047e-07 8.1667822e-05 0
-4.6032456e-10 8.1661587e-05 0
1.4352963e-15 1.4767764e-05 0
4.6032456e-10 8.1661587e-05 0
2.2901047e-07 8.1667822e-05 0
5.8679484e-07 1.4834928e-05 0
-5.8674715e-07 1.4835026e-05 0
-3.749777e-07 8.1664497e-05 0
3.7526917e-07 8.1690923e-05 0
5.5283891e-07 1.4835693e-05 0
-1.8104878e-05 1.4634496e-05 0
-0.00013810801 3.9635655e-05 0
-6.8949666e-05 0.00016043994 0
-0.00012274932 6.2908111e-05 0
-0.00014026891 9.4219664e-05 0
-0.0010903855 0.00020840669 0
-0.003860272 0.00023349127 0
0.0029902223 0.00017442548 0
0.00076551887 0.00014529451 0
0.0003009818 6.9088048e-05 0
0.00011644937 0.00010726044 0
6.5221371e-05 8.2468476e-05 0
6.7300539e-06 7.4275263e-06 0
9.693548e-07 5.2906216e-05 0
9.7385339e-07 5.2899937e-05 0
6.309827e-07 1.1400884e-07 0
-6.3360864e-07 1.1435718e-07 0
-3.9312184e-07 5.2899253e-05 0
-6.4320043e-09 5.2898587e-05 0
9.1744829e-07 5.2898136e-05 0
8.1436025e-11 7.3099814e-05 0
-9.220559e-07 5.289826e-05 0
-2.8372401e-07 5.2898606e-05 0
-1.2243923e-07 5.2898595e-05 0
-6.0353415e-08 5.2898769e-05 0
-1.6291605e-07 5.2902215e-05 0
2.1267746e-07 9.1255139e-08 0
6.0867359e-07 5.2902666e-05 0
4.2713839e-07 5.2899191e-05 0
3.6769069e-07 9.9129537e-08 0
-3.6769066e-07 9.9129551e-08 0
-4.2303438e-07 5.2898991e-05 0
1.3285283e-07 5.2899592e-05 0
4.6391338e-15 9.7487337e-08 0
-1.3285283e-07 5.2899592e-05 0
4.2303438e-07 5.2898991e-05 0
3.6769066e-07 9.9129551e-08 0
-3.6769077e-07 9.9129686e-08 0
5.367605e-08 5.2899017e-05 0
-5.367605e-08 5.2899024e-05 0
3.473624e-07 9.9130702e-08 0
-8.6766886e-06 2.3150058e-07 0
-3.1987685e-05 0.00014669028 0
1.5323209e-06 0.00011175888 0
-0.00015408055 3.5597892e-05 0
-0.00016046394 0.00010409838 0
-0.00088858529 8.833273e-05 0
-0.0029121863 5.9389695e-05 0
0.0040036519 1.0092576e-05 0
0.0012442583 3.5857978e-05 0
0.00026706676 8.829077e-05 0
0.00010953534 7.9965961e-05 0
0.00013877466 7.2215871e-06 0
7.9216879e-05 -7.6827137e-06 0
3.2497978e-06 2.48533e-06 0
8.5238536e-09 2.4839217e-06 0
-5.2896032e-16 -4.7611168e-09 0
7.2855591e-16 -4.7610675e-09 0
-4.7222861e-09 2.4839221e-06 0
4.4407389e-09 2.4839208e-06 0
-1.45355e-07 2.4838539e-06 0
0 8.1116377e-05 0
1.4535745e-07 2.4838539e-06 0
-4.4046091e-09 2.4839208e-06 0
4.7465241e-09 2.4839208e-06 0
-4.8014384e-09 2.4839208e-06 0
4.7402051e-09 2.4839237e-06 0
-1.4347486e-16 -4.7687823e-09 0
-4.7788387e-09 2.483923e-06 0
4.7469659e-09 2.4839219e-06 0
-3.4201279e-16 -4.7682644e-09 0
3.4201285e-16 -4.7682644e-09 0
-4.7469659e-09 2.4839219e-06 0
4.777978e-09 2.4839223e-06 0
0 -4.768379e-09 0
-4.777978e-09 2.4839223e-06 0