<?xml version="1.0" ?>

<VTKFile type="UnstructuredGrid" version="0.1" byte_order="BigEndian">

<UnstructuredGrid>

<Piece NumberOfPoints= " 2009 " NumberOfCells=" 2009 ">

<PointData Scalars="Pressure" Vectors="Velocity">

<DataArray type="Float32" Name="Pressure" format="ascii">

28.9707 22.9615 27.361 10.9438 10.1927 5.36451 10.3 10.3 5.36451 5.36451 10.3 10.3 10.3 9.11979 10.3 10.3 10.3 10.3 10.3 5.36451 10.3 10.3 5.36451 5.36451 10.3 10.3 5.36451 10.3 10.3 5.36451 5.36451 10.3 10.3 5.36451 5.36451 10.3 10.3 5.36451 29.5072 29.1853 34.8728 21.7811 18.9912 14.1627 5.36451 7.93955 7.29579 8.04684 8.04684 7.29579 7.29579 8.04684 8.04684 8.04684 5.90098 8.04684 8.04684 8.04684 8.04684 8.04684 7.29579 8.04684 8.04684 7.29579 7.29579 8.04684 8.04684 7.29579 8.04684 8.04684 7.29579 7.29579 8.04684 8.04684 7.29579 7.29579 8.04684 8.04684 7.0812 23.9272 25.2149 28.6487 27.2537 23.498 20.0643 9.76356 6.65203 0.214577 6.65203 6.65203 0.214577 0.214577 6.65203 6.65203 6.65203 9.22708 6.65203 6.65203 6.65203 6.65203 6.65203 0.214577 6.65203 6.65203 0.214577 0.214577 6.65203 6.65203 0.214577 6.65203 6.65203 0.214577 0.214577 6.65203 6.65203 0.214577 0.214577 6.65203 6.65203 0.429154 25.5368 24.571 29.8291 24.2491 20.3862 17.7036 0.214577 0 0 0 0 0 0 0 0 0 1.50204 0 0 0 0 0 0 0 0 0 0 0 0 0 0 0 0 0 0 0 0 0 0 0 0 6.86661 8.47602 10.5146 10.3 8.04684 6.65203 0 0 0 0 0 0 0 0 0 0 0 0 0 0 0 0 0 0 0 0 0 0 0 0 0 0 0 0 0 0 0 0 0 0 0 6.65203 7.93955 10.1927 5.36451 7.29579 0.214577 0 0 0 0 0 0 0 0 0 0 0 0 0 0 0 0 0 0 0 0 0 0 0 0 0 0 0 0 0 0 0 0 0 0 0 0.214577 7.29579 5.36451 10.3 8.04684 6.65203 0 0 0 0 0 0 0 0 0 0 0 0 0 0 0 0 0 0 0 0 0 0 0 0 0 0 0 0 0 0 0 0 0 0 0 6.65203 8.04684 10.3 10.3 8.04684 6.65203 0 0 0 0 0 0 0 0 0 0 0 0 0 0 0 0 0 0 0 0 0 0 0 0 0 0 0 0 0 0 0 0 0 0 0 6.65203 8.04684 10.3 5.36451 7.29579 0.214577 0 0 0 0 0 0 0 0 0 0 0 0 0 0 0 0 0 0 0 0 0 0 0 0 0 0 0 0 0 0 0 0 0 0 0 0.214577 7.29579 5.36451 5.36451 7.29579 0.214577 0 0 0 0 0 0 0 0 0 0 0 0 0 0 0 0 0 0 0 0 0 0 0 0 0 0 0 0 0 0 0 0 0 0 0 0.214577 7.29579 5.36451 10.3 8.04684 6.65203 0 0 0 0 0 0 0 0 0 0 0 0 0 0 0 0 0 0 0 0 0 0 0 0 0 0 0 0 0 0 0 0 0 0 0 6.65203 8.04684 10.3 10.3 8.04684 6.65203 0 0 0 0 0 0 0 0 0 0 0 0 0 0 0 0 0 0 0 0 0 0 0 0 0 0 0 0 0 0 0 0 0 0 0 6.65203 8.04684 10.3 10.3 8.04684 6.65203 0 0 0 0 0 0 0 0 0 0 0 0 0 0 0 0 0 0 0 0 0 0 0 0 0 0 0 0 0 0 0 0 0 0 0 6.65203 8.04684 10.3 9.11979 5.90098 9.22708 1.50204 0 0 0 0 0 0 0 0 0 0 0 0 0 0 0 0 0 0 0 0 0 0 0 0 0 0 0 0 0 0 0 0 0 1.50204 9.22708 5.90098 9.11979 10.3 8.04684 6.65203 0 0 0 0 0 0 0 0 0 0 0 0 0 0 0 0 0 0 0 0 0 0 0 0 0 0 0 0 0 0 0 0 0 0 0 6.65203 8.04684 10.3 10.3 8.04684 6.65203 0 0 0 0 0 0 0 0 0 0 0 0 0 0 0 0 0 0 0 0 0 0 0 0 0 0 0 0 0 0 0 0 0 0 0 6.65203 8.04684 10.3 10.3 8.04684 6.65203 0 0 0 0 0 0 0 0 0 0 0 0 0 0 0 0 0 0 0 0 0 0 0 0 0 0 0 0 0 0 0 0 0 0 0 6.65203 8.04684 10.3 10.3 8.04684 6.65203 0 0 0 0 0 0 0 0 0 0 0 0 0 0 0 0 0 0 0 0 0 0 0 0 0 0 0 0 0 0 0 0 0 0 0 6.65203 8.04684 10.3 10.3 8.04684 6.65203 0 0 0 0 0 0 0 0 0 0 0 0 0 0 0 0 0 0 0 0 0 0 0 0 0 0 0 0 0 0 0 0 0 0 0 6.65203 8.04684 10.3 5.36451 7.29579 0.214577 0 0 0 0 0 0 0 0 0 0 0 0 0 0 0 0 0 0 0 0 0 0 0 0 0 0 0 0 0 0 0 0 0 0 0 0.214577 7.29579 5.36451 10.3 8.04684 6.65203 0 0 0 0 0 0 0 0 0 0 0 0 0 0 0 0 0 0 0 0 0 0 0 0 0 0 0 0 0 0 0 0 0 0 0 6.65203 8.04684 10.3 10.3 8.04684 6.65203 0 0 0 0 0 0 0 0 0 0 0 0 0 0 0 0 0 0 0 0 0 0 0 0 0 0 0 0 0 0 0 0 0 0 0 6.65203 8.04684 10.3 5.36451 7.29579 0.214577 0 0 0 0 0 0 0 0 0 0 0 0 0 0 0 0 0 0 0 0 0 0 0 0 0 0 0 0 0 0 0 0 0 0 0 0.214577 7.29579 5.36451 5.36451 7.29579 0.214577 0 0 0 0 0 0 0 0 0 0 0 0 0 0 0 0 0 0 0 0 0 0 0 0 0 0 0 0 0 0 0 0 0 0 0 0.214577 7.29579 5.36451 10.3 8.04684 6.65203 0 0 0 0 0 0 0 0 0 0 0 0 0 0 0 0 0 0 0 0 0 0 0 0 0 0 0 0 0 0 0 0 0 0 0 6.65203 8.04684 10.3 10.3 8.04684 6.65203 0 0 0 0 0 0 0 0 0 0 0 0 0 0 0 0 0 0 0 0 0 0 0 0 0 0 0 0 0 0 0 0 0 0 0 6.65203 8.04684 10.3 5.36451 7.29579 0.214577 0 0 0 0 0 0 0 0 0 0 0 0 0 0 0 0 0 0 0 0 0 0 0 0 0 0 0 0 0 0 0 0 0 0 0 0.214577 7.29579 5.36451 10.3 8.04684 6.65203 0 0 0 0 0 0 0 0 0 0 0 0 0 0 0 0 0 0 0 0 0 0 0 0 0 0 0 0 0 0 0 0 0 0 0 6.65203 8.04684 10.3 10.3 8.04684 6.65203 0 0 0 0 0 0 0 0 0 0 0 0 0 0 0 0 0 0 0 0 0 0 0 0 0 0 0 0 0 0 0 0 0 0 0 6.65203 8.04684 10.3 5.36451 7.29579 0.214577 0 0 0 0 0 0 0 0 0 0 0 0 0 0 0 0 0 0 0 0 0 0 0 0 0 0 0 0 0 0 0 0 0 0 0 0.214577 7.29579 5.36451 5.36451 7.29579 0.214577 0 0 0 0 0 0 0 0 0 0 0 0 0 0 0 0 0 0 0 0 0 0 0 0 0 0 0 0 0 0 0 0 0 0 0 0.214577 7.29579 5.36451 10.3 8.04684 6.65203 0 0 0 0 0 0 0 0 0 0 0 0 0 0 0 0 0 0 0 0 0 0 0 0 0 0 0 0 0 0 0 0 0 0 0 6.65203 8.04684 10.3 10.3 8.04684 6.65203 0 0 0 0 0 0 0 0 0 0 0 0 0 0 0 0 0 0 0 0 0 0 0 0 0 0 0 0 0 0 0 0 0 0 0 6.65203 8.04684 10.3 5.36451 7.29579 0.214577 0 0 0 0 0 0 0 0 0 0 0 0 0 0 0 0 0 0 0 0 0 0 0 0 0 0 0 0 0 0 0 0 0 0 0 0.214577 7.29579 5.36451 5.36451 7.29579 0.214577 0 0 0 0 0 0 0 0 0 0 0 0 0 0 0 0 0 0 0 0 0 0 0 0 0 0 0 0 0 0 0 0 0 0 0 0.214577 7.29579 5.36451 10.3 8.04684 6.65203 0 0 0 0 0 0 0 0 0 0 0 0 0 0 0 0 0 0 0 0 0 0 0 0 0 0 0 0 0 0 0 0 0 0 0 6.65203 8.04684 10.3 10.3 8.04684 6.65203 0 0 0 0 0 0 0 0 0 0 0 0 0 0 0 0 0 0 0 0 0 0 0 0 0 0 0 0 0 0 0 0 0 0 0 6.65203 8.04684 10.3 5.36451 7.0812 0.429154 0 0 0 0 0 0 0 0 0 0 1.50204 0 0 0 0 0 0 0 0 0 0 0 0 0 0 0 0 0 0 0 0 0 0 0 0 0.429154 7.0812 5.36451 29.5072 23.9272 25.5368 6.86661 6.65203 0.214577 6.65203 6.65203 0.214577 0.214577 6.65203 6.65203 6.65203 9.22708 6.65203 6.65203 6.65203 6.65203 6.65203 0.214577 6.65203 6.65203 0.214577 0.214577 6.65203 6.65203 0.214577 6.65203 6.65203 0.214577 0.214577 6.65203 6.65203 0.214577 0.214577 6.65203 6.65203 0.429154 26.0733 24.1418 29.8291 29.1853 25.2149 24.571 8.47602 7.93955 7.29579 8.04684 8.04684 7.29579 7.29579 8.04684 8.04684 8.04684 5.90098 8.04684 8.04684 8.04684 8.04684 8.04684 7.29579 8.04684 8.04684 7.29579 7.29579 8.04684 8.04684 7.29579 8.04684 8.04684 7.29579 7.29579 8.04684 8.04684 7.29579 7.29579 8.04684 8.04684 7.0812 24.1418 25.0003 28.8633 34.8728 28.6487 29.8291 10.5146 10.1927 5.36451 10.3 10.3 5.36451 5.36451 10.3 10.3 10.3 9.11979 10.3 10.3 10.3 10.3 10.3 5.36451 10.3 10.3 5.36451 5.36451 10.3 10.3 5.36451 10.3 10.3 5.36451 5.36451 10.3 10.3 5.36451 5.36451 10.3 10.3 5.36451 29.8291 28.8633 35.1947 0.1 0.1 0.1 0.1 0.1 0.1 0.1 0.1 0.1 0.1 0.1 0.1 0.1 0.1 0.1 0.1 0.1 0.1 0.1 0.1 0.1 0.1 0.1 0.1 0.1 0.1 0.1 0.1 0.1 0.1 0.1 0.1 0.1 0.1 0.1 0.1 0.1 0.1 0.1 0.1 0.1 0.1 0.1 0.1 0.1 0.1 0.1 0.1 0.1 0.1 0.1 0.1 0.1 0.1 0.1 0.1 0.1 0.1 0.1 0.1 0.1 0.1 0.1 0.1 0.1 0.1 0.1 0.1 0.1 0.1 0.1 0.1 0.1 0.1 0.1 0.1 0.1 0.1 0.1 0.1 0.1 0.1 0.1 0.1 0.1 0.1 0.1 0.1 0.1 0.1 0.1 0.1 0.1 0.1 0.1 0.1 0.1 0.1 0.1 0.1 0.1 0.1 0.1 0.1 0.1 0.1 0.1 0.1 0.1 0.1 0.1 0.1 0.1 0.1 0.1 0.1 0.1 0.1 0.1 0.1 0.1 0.1 0.1 0.1 0.1 0.1 0.1 0.1 0.1 0.1 0.1 0.1 0.1 0.1 0.1 0.1 0.1 0.1 0.1 0.1 0.1 0.1 0.1 0.1 0.1 0.1 0.1 0.1 0.1 0.1 0.1 0.1 0.1 0.1 0.1 0.1 0.1 0.1 0.1 0.1 0.1 0.1 0.1 0.1 0.1 0.1 0.1 0.1 0.1 0.1 0.1 0.1 0.1 0.1 0.1 0.1 0.1 0.1 0.1 0.1 0.1 0.1 0.1 0.1 0.1 0.1 0.1 0.1 0.1 0.1 0.1 0.1 0.1 0.1 0.1 0.1 0.1 0.1 0.1 0.1 0.1 0.1 0.1 0.1 0.1 0.1 0.1 0.1 0.1 0.1 0.1 0.1 0.1 0.1 0.1 0.1 0.1 0.1 0.1 0.1 0.1 0.1 0.1 0.1 0.1 0.1 0.1 0.1 0.1 0.1 0.1 0.1 0.1 0.1 0.1 0.1 0.1 0.1 0.1 0.1 0.1 0.1 0.1 0.1 0.1 0.1 0.1 0.1 0.1 0.1 0.1 0.1 0.1 0.1 0.1 0.1 0.1 0.1 0.1 0.1 0.1 0.1 0.1 0.1 0.1 0.1 0.1 0.1 0.1 0.1 0.1 0.1 0.1 0.1 0.1 0.1 0.1 0.1 0.1 0.1 0.1 0.1 0.1 0.1 0.1 0.1 0.1 0.1 0.1 0.1 0.1 0.1 0.1 0.1 0.1 0.1 0.1 0.1 0.1 0.1 0.1 0.1 0.1 0.1 0.1 0.1 0.1 0.1 0.1 0.1 0.1 0.1 0.1 0.1 0.1 0.1 0.1 0.1 0.1 0.1 0.1 0.1 0.1 0.1 0.1 0.1 0.1 0.1 
</DataArray>

<DataArray type="Float32" Name="Density" format="ascii">
1000.03 1000.03 1000.03 1000.01 1000.01 1000.01 1000.01 1000.01 1000.01 1000.01 1000.01 1000.01 1000.01 1000.01 1000.01 1000.01 1000.01 1000.01 1000.01 1000.01 1000.01 1000.01 1000.01 1000.01 1000.01 1000.01 1000.01 1000.01 1000.01 1000.01 1000.01 1000.01 1000.01 1000.01 1000.01 1000.01 1000.01 1000.01 1000.03 1000.03 1000.04 1000.02 1000.02 1000.02 1000.01 1000.01 1000.01 1000.01 1000.01 1000.01 1000.01 1000.01 1000.01 1000.01 1000.01 1000.01 1000.01 1000.01 1000.01 1000.01 1000.01 1000.01 1000.01 1000.01 1000.01 1000.01 1000.01 1000.01 1000.01 1000.01 1000.01 1000.01 1000.01 1000.01 1000.01 1000.01 1000.01 1000.01 1000.01 1000.03 1000.03 1000.03 1000.03 1000.03 1000.02 1000.01 1000.01 1000 1000.01 1000.01 1000 1000 1000.01 1000.01 1000.01 1000.01 1000.01 1000.01 1000.01 1000.01 1000.01 1000 1000.01 1000.01 1000 1000 1000.01 1000.01 1000 1000.01 1000.01 1000 1000 1000.01 1000.01 1000 1000 1000.01 1000.01 1000 1000.03 1000.03 1000.03 1000.03 1000.02 1000.02 1000 1000 1000 1000 1000 1000 1000 1000 1000 1000 1000 1000 1000 1000 1000 1000 1000 1000 1000 1000 1000 1000 1000 1000 1000 1000 1000 1000 1000 1000 1000 1000 1000 1000 1000 1000.01 1000.01 1000.01 1000.01 1000.01 1000.01 1000 1000 1000 1000 1000 1000 1000 1000 1000 1000 1000 1000 1000 1000 1000 1000 1000 1000 1000 1000 1000 1000 1000 1000 1000 1000 1000 1000 1000 1000 1000 1000 1000 1000 1000 1000.01 1000.01 1000.01 1000.01 1000.01 1000 1000 1000 1000 1000 1000 1000 1000 1000 1000 1000 1000 1000 1000 1000 1000 1000 1000 1000 1000 1000 1000 1000 1000 1000 1000 1000 1000 1000 1000 1000 1000 1000 1000 1000 1000 1000 1000.01 1000.01 1000.01 1000.01 1000.01 1000 1000 1000 1000 1000 1000 1000 1000 1000 1000 1000 1000 1000 1000 1000 1000 1000 1000 1000 1000 1000 1000 1000 1000 1000 1000 1000 1000 1000 1000 1000 1000 1000 1000 1000 1000.01 1000.01 1000.01 1000.01 1000.01 1000.01 1000 1000 1000 1000 1000 1000 1000 1000 1000 1000 1000 1000 1000 1000 1000 1000 1000 1000 1000 1000 1000 1000 1000 1000 1000 1000 1000 1000 1000 1000 1000 1000 1000 1000 1000 1000.01 1000.01 1000.01 1000.01 1000.01 1000 1000 1000 1000 1000 1000 1000 1000 1000 1000 1000 1000 1000 1000 1000 1000 1000 1000 1000 1000 1000 1000 1000 1000 1000 1000 1000 1000 1000 1000 1000 1000 1000 1000 1000 1000 1000 1000.01 1000.01 1000.01 1000.01 1000 1000 1000 1000 1000 1000 1000 1000 1000 1000 1000 1000 1000 1000 1000 1000 1000 1000 1000 1000 1000 1000 1000 1000 1000 1000 1000 1000 1000 1000 1000 1000 1000 1000 1000 1000 1000 1000.01 1000.01 1000.01 1000.01 1000.01 1000 1000 1000 1000 1000 1000 1000 1000 1000 1000 1000 1000 1000 1000 1000 1000 1000 1000 1000 1000 1000 1000 1000 1000 1000 1000 1000 1000 1000 1000 1000 1000 1000 1000 1000 1000.01 1000.01 1000.01 1000.01 1000.01 1000.01 1000 1000 1000 1000 1000 1000 1000 1000 1000 1000 1000 1000 1000 1000 1000 1000 1000 1000 1000 1000 1000 1000 1000 1000 1000 1000 1000 1000 1000 1000 1000 1000 1000 1000 1000 1000.01 1000.01 1000.01 1000.01 1000.01 1000.01 1000 1000 1000 1000 1000 1000 1000 1000 1000 1000 1000 1000 1000 1000 1000 1000 1000 1000 1000 1000 1000 1000 1000 1000 1000 1000 1000 1000 1000 1000 1000 1000 1000 1000 1000 1000.01 1000.01 1000.01 1000.01 1000.01 1000.01 1000 1000 1000 1000 1000 1000 1000 1000 1000 1000 1000 1000 1000 1000 1000 1000 1000 1000 1000 1000 1000 1000 1000 1000 1000 1000 1000 1000 1000 1000 1000 1000 1000 1000 1000 1000.01 1000.01 1000.01 1000.01 1000.01 1000.01 1000 1000 1000 1000 1000 1000 1000 1000 1000 1000 1000 1000 1000 1000 1000 1000 1000 1000 1000 1000 1000 1000 1000 1000 1000 1000 1000 1000 1000 1000 1000 1000 1000 1000 1000 1000.01 1000.01 1000.01 1000.01 1000.01 1000.01 1000 1000 1000 1000 1000 1000 1000 1000 1000 1000 1000 1000 1000 1000 1000 1000 1000 1000 1000 1000 1000 1000 1000 1000 1000 1000 1000 1000 1000 1000 1000 1000 1000 1000 1000 1000.01 1000.01 1000.01 1000.01 1000.01 1000.01 1000 1000 1000 1000 1000 1000 1000 1000 1000 1000 1000 1000 1000 1000 1000 1000 1000 1000 1000 1000 1000 1000 1000 1000 1000 1000 1000 1000 1000 1000 1000 1000 1000 1000 1000 1000.01 1000.01 1000.01 1000.01 1000.01 1000.01 1000 1000 1000 1000 1000 1000 1000 1000 1000 1000 1000 1000 1000 1000 1000 1000 1000 1000 1000 1000 1000 1000 1000 1000 1000 1000 1000 1000 1000 1000 1000 1000 1000 1000 1000 1000.01 1000.01 1000.01 1000.01 1000.01 1000.01 1000 1000 1000 1000 1000 1000 1000 1000 1000 1000 1000 1000 1000 1000 1000 1000 1000 1000 1000 1000 1000 1000 1000 1000 1000 1000 1000 1000 1000 1000 1000 1000 1000 1000 1000 1000.01 1000.01 1000.01 1000.01 1000.01 1000 1000 1000 1000 1000 1000 1000 1000 1000 1000 1000 1000 1000 1000 1000 1000 1000 1000 1000 1000 1000 1000 1000 1000 1000 1000 1000 1000 1000 1000 1000 1000 1000 1000 1000 1000 1000 1000.01 1000.01 1000.01 1000.01 1000.01 1000 1000 1000 1000 1000 1000 1000 1000 1000 1000 1000 1000 1000 1000 1000 1000 1000 1000 1000 1000 1000 1000 1000 1000 1000 1000 1000 1000 1000 1000 1000 1000 1000 1000 1000 1000.01 1000.01 1000.01 1000.01 1000.01 1000.01 1000 1000 1000 1000 1000 1000 1000 1000 1000 1000 1000 1000 1000 1000 1000 1000 1000 1000 1000 1000 1000 1000 1000 1000 1000 1000 1000 1000 1000 1000 1000 1000 1000 1000 1000 1000.01 1000.01 1000.01 1000.01 1000.01 1000 1000 1000 1000 1000 1000 1000 1000 1000 1000 1000 1000 1000 1000 1000 1000 1000 1000 1000 1000 1000 1000 1000 1000 1000 1000 1000 1000 1000 1000 1000 1000 1000 1000 1000 1000 1000 1000.01 1000.01 1000.01 1000.01 1000 1000 1000 1000 1000 1000 1000 1000 1000 1000 1000 1000 1000 1000 1000 1000 1000 1000 1000 1000 1000 1000 1000 1000 1000 1000 1000 1000 1000 1000 1000 1000 1000 1000 1000 1000 1000 1000.01 1000.01 1000.01 1000.01 1000.01 1000 1000 1000 1000 1000 1000 1000 1000 1000 1000 1000 1000 1000 1000 1000 1000 1000 1000 1000 1000 1000 1000 1000 1000 1000 1000 1000 1000 1000 1000 1000 1000 1000 1000 1000 1000.01 1000.01 1000.01 1000.01 1000.01 1000.01 1000 1000 1000 1000 1000 1000 1000 1000 1000 1000 1000 1000 1000 1000 1000 1000 1000 1000 1000 1000 1000 1000 1000 1000 1000 1000 1000 1000 1000 1000 1000 1000 1000 1000 1000 1000.01 1000.01 1000.01 1000.01 1000.01 1000 1000 1000 1000 1000 1000 1000 1000 1000 1000 1000 1000 1000 1000 1000 1000 1000 1000 1000 1000 1000 1000 1000 1000 1000 1000 1000 1000 1000 1000 1000 1000 1000 1000 1000 1000 1000 1000.01 1000.01 1000.01 1000.01 1000.01 1000 1000 1000 1000 1000 1000 1000 1000 1000 1000 1000 1000 1000 1000 1000 1000 1000 1000 1000 1000 1000 1000 1000 1000 1000 1000 1000 1000 1000 1000 1000 1000 1000 1000 1000 1000.01 1000.01 1000.01 1000.01 1000.01 1000.01 1000 1000 1000 1000 1000 1000 1000 1000 1000 1000 1000 1000 1000 1000 1000 1000 1000 1000 1000 1000 1000 1000 1000 1000 1000 1000 1000 1000 1000 1000 1000 1000 1000 1000 1000 1000.01 1000.01 1000.01 1000.01 1000.01 1000 1000 1000 1000 1000 1000 1000 1000 1000 1000 1000 1000 1000 1000 1000 1000 1000 1000 1000 1000 1000 1000 1000 1000 1000 1000 1000 1000 1000 1000 1000 1000 1000 1000 1000 1000 1000 1000.01 1000.01 1000.01 1000.01 1000 1000 1000 1000 1000 1000 1000 1000 1000 1000 1000 1000 1000 1000 1000 1000 1000 1000 1000 1000 1000 1000 1000 1000 1000 1000 1000 1000 1000 1000 1000 1000 1000 1000 1000 1000 1000 1000.01 1000.01 1000.01 1000.01 1000.01 1000 1000 1000 1000 1000 1000 1000 1000 1000 1000 1000 1000 1000 1000 1000 1000 1000 1000 1000 1000 1000 1000 1000 1000 1000 1000 1000 1000 1000 1000 1000 1000 1000 1000 1000 1000.01 1000.01 1000.01 1000.01 1000.01 1000.01 1000 1000 1000 1000 1000 1000 1000 1000 1000 1000 1000 1000 1000 1000 1000 1000 1000 1000 1000 1000 1000 1000 1000 1000 1000 1000 1000 1000 1000 1000 1000 1000 1000 1000 1000 1000.01 1000.01 1000.01 1000.01 1000.01 1000 1000 1000 1000 1000 1000 1000 1000 1000 1000 1000 1000 1000 1000 1000 1000 1000 1000 1000 1000 1000 1000 1000 1000 1000 1000 1000 1000 1000 1000 1000 1000 1000 1000 1000 1000 1000 1000.01 1000.01 1000.01 1000.01 1000 1000 1000 1000 1000 1000 1000 1000 1000 1000 1000 1000 1000 1000 1000 1000 1000 1000 1000 1000 1000 1000 1000 1000 1000 1000 1000 1000 1000 1000 1000 1000 1000 1000 1000 1000 1000 1000.01 1000.01 1000.01 1000.01 1000.01 1000 1000 1000 1000 1000 1000 1000 1000 1000 1000 1000 1000 1000 1000 1000 1000 1000 1000 1000 1000 1000 1000 1000 1000 1000 1000 1000 1000 1000 1000 1000 1000 1000 1000 1000 1000.01 1000.01 1000.01 1000.01 1000.01 1000.01 1000 1000 1000 1000 1000 1000 1000 1000 1000 1000 1000 1000 1000 1000 1000 1000 1000 1000 1000 1000 1000 1000 1000 1000 1000 1000 1000 1000 1000 1000 1000 1000 1000 1000 1000 1000.01 1000.01 1000.01 1000.01 1000.01 1000 1000 1000 1000 1000 1000 1000 1000 1000 1000 1000 1000 1000 1000 1000 1000 1000 1000 1000 1000 1000 1000 1000 1000 1000 1000 1000 1000 1000 1000 1000 1000 1000 1000 1000 1000 1000 1000.01 1000.01 1000.03 1000.03 1000.03 1000.01 1000.01 1000 1000.01 1000.01 1000 1000 1000.01 1000.01 1000.01 1000.01 1000.01 1000.01 1000.01 1000.01 1000.01 1000 1000.01 1000.01 1000 1000 1000.01 1000.01 1000 1000.01 1000.01 1000 1000 1000.01 1000.01 1000 1000 1000.01 1000.01 1000 1000.03 1000.03 1000.03 1000.03 1000.03 1000.03 1000.01 1000.01 1000.01 1000.01 1000.01 1000.01 1000.01 1000.01 1000.01 1000.01 1000.01 1000.01 1000.01 1000.01 1000.01 1000.01 1000.01 1000.01 1000.01 1000.01 1000.01 1000.01 1000.01 1000.01 1000.01 1000.01 1000.01 1000.01 1000.01 1000.01 1000.01 1000.01 1000.01 1000.01 1000.01 1000.03 1000.03 1000.03 1000.04 1000.03 1000.03 1000.01 1000.01 1000.01 1000.01 1000.01 1000.01 1000.01 1000.01 1000.01 1000.01 1000.01 1000.01 1000.01 1000.01 1000.01 1000.01 1000.01 1000.01 1000.01 1000.01 1000.01 1000.01 1000.01 1000.01 1000.01 1000.01 1000.01 1000.01 1000.01 1000.01 1000.01 1000.01 1000.01 1000.01 1000.01 1000.03 1000.03 1000.04 1000 1000 1000 1000 1000 1000 1000 1000 1000 1000 1000 1000 1000 1000 1000 1000 1000 1000 1000 1000 1000 1000 1000 1000 1000 1000 1000 1000 1000 1000 1000 1000 1000 1000 1000 1000 1000 1000 1000 1000 1000 1000 1000 1000 1000 1000 1000 1000 1000 1000 1000 1000 1000 1000 1000 1000 1000 1000 1000 1000 1000 1000 1000 1000 1000 1000 1000 1000 1000 1000 1000 1000 1000 1000 1000 1000 1000 1000 1000 1000 1000 1000 1000 1000 1000 1000 1000 1000 1000 1000 1000 1000 1000 1000 1000 1000 1000 1000 1000 1000 1000 1000 1000 1000 1000 1000 1000 1000 1000 1000 1000 1000 1000 1000 1000 1000 1000 1000 1000 1000 1000 1000 1000 1000 1000 1000 1000 1000 1000 1000 1000 1000 1000 1000 1000 1000 1000 1000 1000 1000 1000 1000 1000 1000 1000 1000 1000 1000 1000 1000 1000 1000 1000 1000 1000 1000 1000 1000 1000 1000 1000 1000 1000 1000 1000 1000 1000 1000 1000 1000 1000 1000 1000 1000 1000 1000 1000 1000 1000 1000 1000 1000 1000 1000 1000 1000 1000 1000 1000 1000 1000 1000 1000 1000 1000 1000 1000 1000 1000 1000 1000 1000 1000 1000 1000 1000 1000 1000 1000 1000 1000 1000 1000 1000 1000 1000 1000 1000 1000 1000 1000 1000 1000 1000 1000 1000 1000 1000 1000 1000 1000 1000 1000 1000 1000 1000 1000 1000 1000 1000 1000 1000 1000 1000 1000 1000 1000 1000 1000 1000 1000 1000 1000 1000 1000 1000 1000 1000 1000 1000 1000 1000 1000 1000 1000 1000 1000 1000 1000 1000 1000 1000 1000 1000 1000 1000 1000 1000 1000 1000 1000 1000 1000 1000 1000 1000 1000 1000 1000 1000 1000 1000 1000 1000 1000 1000 1000 1000 1000 1000 1000 1000 1000 1000 1000 1000 1000 1000 1000 1000 1000 1000 1000 1000 1000 1000 1000 1000 1000 1000 1000 1000 1000 1000 1000 1000 1000 1000 
</DataArray>
<DataArray type="Float32" Name="Velocity" NumberOfComponents="3" format="ascii">
0.0041096346 0.0061563156 0
0.0010153061 0.0059221461 0
-5.2697123e-05 0.0059362156 0
1.6480702e-05 0.0049770297 0
1.7097485e-06 0.0042053498 0
-3.7966841e-11 0.002897216 0
1.9458729e-07 0.0042163674 0
-1.9867971e-07 0.0042163674 0
3.712991e-09 0.0028982684 0
-8.4316804e-10 0.0028983064 0
4.0717859e-07 0.0042163651 0
-1.4873062e-08 0.0042163664 0
-9.3906914e-07 0.0042163632 0
0 0.0051624323 0
-3.8278017e-07 0.0042163632 0
1.175577e-06 0.0042163664 0
1.2738353e-08 0.0042163664 0
-2.6649366e-07 0.0042163664 0
4.8049151e-07 0.0042163637 0
-9.5833862e-12 0.002897216 0
3.4166851e-07 0.0042163655 0
-3.44293e-07 0.0042163655 0
3.7885917e-09 0.0028982812 0
-3.7885917e-09 0.0028982812 0
3.427873e-07 0.0042163655 0
-3.427873e-07 0.0042163655 0
0 0.002897216 0
3.427873e-07 0.0042163655 0
-3.427873e-07 0.0042163655 0
3.7885917e-09 0.0028982812 0
-3.7885917e-09 0.0028982812 0
3.427873e-07 0.0042163655 0
-3.427873e-07 0.0042163655 0
3.7885917e-09 0.0028982812 0
-3.7885917e-09 0.0028982812 0
3.4588339e-07 0.0042163655 0
-3.3973808e-07 0.0042163655 0
7.4278148e-08 0.0028991206 0
-0.00042776973 0.00413911 0
-0.0010184685 0.003933426 0
-0.0042653503 0.0042519821 0
0.0039716307 0.0012985548 0
0.0012517595 0.0013766125 0
0.00026323146 0.0013662179 0
1.4432536e-05 0.001239196 0
1.3056489e-05 0.0012576004 0
-2.2110476e-09 0.0007935699 0
-1.0695894e-07 0.0012598248 0
1.0598916e-07 0.0012598248 0
-4.6273956e-07 0.00091475132 0
1.9612527e-07 0.00091503683 0
-1.9849861e-07 0.0012598248 0
-1.544637e-08 0.0012598247 0
-2.2427213e-07 0.0012598236 0
1.2260261e-11 0.0015098897 0
-4.6653281e-07 0.0012598237 0
6.1621392e-08 0.0012598246 0
4.8371652e-07 0.0012598247 0
-2.9692686e-07 0.0012598261 0
1.8649382e-07 0.0012598248 0
-9.3919234e-11 0.00079357257 0
-4.0991134e-07 0.0012598245 0
4.0935788e-07 0.0012598245 0
-5.9380739e-07 0.00091484567 0
5.9380739e-07 0.00091484567 0
-4.0967481e-07 0.0012598245 0
4.0967481e-07 0.0012598245 0
6.1845636e-15 0.00079357257 0
-4.0967481e-07 0.0012598245 0
4.0967481e-07 0.0012598245 0
-5.9380739e-07 0.00091484567 0
5.9380739e-07 0.00091484567 0
-4.0967481e-07 0.0012598245 0
4.0967481e-07 0.0012598245 0
-5.9380739e-07 0.00091484567 0
5.9380739e-07 0.00091484567 0
-4.0898567e-07 0.0012598245 0
4.1040857e-07 0.0012598245 0
-2.1197604e-05 0.00094061659 0
-0.00038144205 0.001146992 0
-0.0011726936 0.001175593 0
-0.0039252364 0.00098697341 0
0.0038530757 0.0002169635 0
0.0012075943 0.00029859418 0
0.0004110795 0.0001149021 0
1.8617373e-05 0.0001232307 0
6.7764631e-06 7.8512021e-05 0
9.2238548e-07 1.4589062e-05 0
1.0507945e-06 7.9804464e-05 0
6.9619415e-07 7.979817e-05 0
5.3936651e-07 1.4861665e-05 0
-5.1111391e-07 1.4872507e-05 0
-2.2318426e-07 7.9797304e-05 0
-8.3735593e-08 7.9796635e-05 0
-3.4681435e-07 7.9791593e-05 0
7.9286621e-14 0.00012784518 0
-1.713549e-07 7.9791593e-05 0
-3.5987932e-07 7.9796642e-05 0
2.8109466e-07 7.9796635e-05 0
-5.3269854e-08 7.9796642e-05 0
3.0091923e-07 7.9798971e-05 0
1.5456889e-08 1.4601973e-05 0
4.9192971e-07 7.9799378e-05 0
3.4640408e-07 7.9797028e-05 0
3.1455059e-07 1.4866147e-05 0
-3.1455059e-07 1.4866147e-05 0
3.4559417e-08 7.9797028e-05 0
-2.2156935e-07 7.9797312e-05 0
-1.9718671e-15 1.4605728e-05 0
2.2156935e-07 7.9797312e-05 0
-3.4559417e-08 7.9797028e-05 0
3.1455059e-07 1.4866147e-05 0
-3.1455059e-07 1.4866147e-05 0
3.4559417e-08 7.9797028e-05 0
-3.4559417e-08 7.9797028e-05 0
3.1455059e-07 1.4866147e-05 0
-3.1455059e-07 1.4866147e-05 0
-1.4037795e-06 7.9797028e-05 0
-1.568881e-06 7.9807236e-05 0
-1.0280451e-05 1.4677607e-05 0
-0.00025102831 0.00025808142 0
-0.0011342815 0.0003396488 0
-0.0040975558 0.00036657462 0
0.0042187595 0.00025344527 0
0.0011979007 0.00022297229 0
0.00016820071 0.00011747841 0
6.2694662e-06 6.9831262e-06 0
1.1629199e-08 3.3391802e-06 0
-6.5516944e-13 3.297265e-08 0
-4.83077e-09 3.3874251e-06 0
4.7127537e-09 3.3874219e-06 0
-4.9093124e-13 3.3163843e-08 0
8.7291188e-13 3.31802e-08 0
-4.6967976e-09 3.3874217e-06 0
4.7784776e-09 3.3874196e-06 0
-1.4564282e-07 3.3873239e-06 0
0 1.9917994e-05 0
1.456517e-07 3.3873239e-06 0
-4.7407096e-09 3.3874196e-06 0
4.7705995e-09 3.3874196e-06 0
-4.8070854e-09 3.3874196e-06 0
4.7309654e-09 3.3874237e-06 0
-2.0760616e-13 3.2977404e-08 0
-4.7969539e-09 3.3874232e-06 0
4.7269162e-09 3.3874205e-06 0
-8.2783287e-13 3.3169904e-08 0
8.2783287e-13 3.3169904e-08 0
-4.7671302e-09 3.3874205e-06 0
4.7671302e-09 3.3874217e-06 0
0 3.2981077e-08 0
-4.7671302e-09 3.3874217e-06 0
4.7671302e-09 3.3874205e-06 0
-8.2783287e-13 3.3169904e-08 0
8.2783287e-13 3.3169904e-08 0
-4.7671302e-09 3.3874205e-06 0
4.7671302e-09 3.3874205e-06 0
-8.2783287e-13 3.3169904e-08 0
8.2783287e-13 3.3169904e-08 0
-4.6813424e-09 3.3874205e-06 0
1.6164694e-09 3.3874285e-06 0
-3.438503e-06 5.1989115e-08 0
-8.0146419e-05 1.0245316e-05 0
-0.0012583141 3.7697471e-05 0
-0.0042196736 2.8166731e-05 0
0.0042053224 3.140101e-05 0
0.0012574265 3.3893859e-05 0
7.8577381e-05 5.9755344e-06 0
3.3392068e-06 1.3405876e-08 0
7.9834921e-09 7.983485e-09 0
0 4.80461e-09 0
-4.7746509e-09 8.0470288e-09 0
4.7746509e-09 8.0470279e-09 0
0 4.8047109e-09 0
0 4.8047264e-09 0
-4.7746509e-09 8.0470288e-09 0
4.7746509e-09 8.0470262e-09 0
-4.77465e-09 8.0469924e-09 0
0 2.2635591e-07 0
4.77465e-09 8.0469924e-09 0
-4.7746509e-09 8.0470262e-09 0
4.7746509e-09 8.0470262e-09 0
-4.7746509e-09 8.0470262e-09 0
4.7746509e-09 8.0470288e-09 0
0 4.8046127e-09 0
-4.7746562e-09 8.0470288e-09 0
4.7746562e-09 8.0470279e-09 0
0 4.8047166e-09 0
0 4.8047166e-09 0
-4.7746562e-09 8.0470279e-09 0
4.7746562e-09 8.0470288e-09 0
0 4.8046145e-09 0
-4.7746562e-09 8.0470288e-09 0
4.7746562e-09 8.0470279e-09 0
0 4.8047166e-09 0
0 4.8047166e-09 0
-4.7746562e-09 8.0470279e-09 0
4.7746562e-09 8.0470279e-09 0
0 4.8047166e-09 0
0 4.8047166e-09 0
-4.7746562e-09 8.0470279e-09 0
1.6415194e-09 8.0470324e-09 0
-3.343815e-06 4.5419681e-09 0
-7.8520345e-05 3.2093071e-06 0
-0.0012575678 2.2511014e-05 0
-0.0042051999 2.0819305e-05 0
0.0028984093 -8.0861229e-09 0
0.00092289725 8.2106186e-07 0
1.4881633e-05 1.0224194e-06 0
3.3191636e-08 -6.599923e-13 0
4.8047339e-09 0 0
0 0 0
-4.7746509e-09 0 0
4.7746509e-09 0 0
0 0 0
0 0 0
-4.7746509e-09 0 0
4.7746509e-09 0 0
-4.7746509e-09 0 0
0 5.7878823e-11 0
4.7746509e-09 0 0
-4.7746509e-09 0 0
4.7746509e-09 0 0
-4.7746509e-09 0 0
4.7746509e-09 0 0
0 0 0
-4.7746562e-09 0 0
4.7746562e-09 0 0
0 0 0
0 0 0
-4.7746562e-09 0 0
4.7746562e-09 0 0
0 0 0
-4.7746562e-09 0 0
4.7746562e-09 0 0
0 0 0
0 0 0
-4.7746562e-09 0 0
4.7746562e-09 0 0
0 0 0
0 0 0
-4.7746562e-09 0 0
4.7746562e-09 0 0
-3.7677427e-08 -6.5967289e-13 0
-1.4845507e-05 1.0571357e-06 0
-0.00091472093 2.7237544e-07 0
-0.0028983057 -2.6993745e-09 0
0.0042163674 1.9469232e-07 0
0.0012598248 -1.0693719e-07 0
7.9803875e-05 9.2006633e-07 0
3.3874248e-06 -4.8280215e-09 0
8.0470288e-09 -4.7746509e-09 0
0 -4.7746509e-09 0
-4.7746509e-09 -4.7746509e-09 0
4.7746509e-09 -4.7746509e-09 0
0 -4.7746509e-09 0
0 -4.7746509e-09 0
-4.7746509e-09 -4.7746509e-09 0
4.7746509e-09 -4.7746509e-09 0
-4.7746509e-09 -4.7746509e-09 0
0 -4.7746509e-09 0
4.7746509e-09 -4.7746509e-09 0
-4.7746509e-09 -4.7746509e-09 0
4.7746509e-09 -4.7746509e-09 0
-4.7746509e-09 -4.7746509e-09 0
4.7746509e-09 -4.7746509e-09 0
0 -4.7746509e-09 0
-4.7746562e-09 -4.7746509e-09 0
4.7746562e-09 -4.7746509e-09 0
0 -4.7746509e-09 0
0 -4.7746509e-09 0
-4.7746562e-09 -4.7746509e-09 0
4.7746562e-09 -4.7746509e-09 0
0 -4.7746509e-09 0
-4.7746562e-09 -4.7746509e-09 0
4.7746562e-09 -4.7746509e-09 0
0 -4.7746509e-09 0
0 -4.7746509e-09 0
-4.7746562e-09 -4.7746509e-09 0
4.7746562e-09 -4.7746509e-09 0
0 -4.7746509e-09 0
0 -4.7746509e-09 0
-4.7746562e-09 -4.7746509e-09 0
1.583534e-09 -4.7746509e-09 0
-3.3920774e-06 -4.8301905e-09 0
-7.980493e-05 7.6392314e-07 0
-0.0012597982 -1.0694697e-07 0
-0.0042163599 1.9459428e-07 0
0.0042163674 -1.9867971e-07 0
0.0012598248 1.0598916e-07 0
7.979817e-05 6.9619307e-07 0
3.3874219e-06 4.7127537e-09 0
8.0470279e-09 4.7746509e-09 0
0 4.7746509e-09 0
-4.7746509e-09 4.7746509e-09 0
4.7746509e-09 4.7746509e-09 0
0 4.7746509e-09 0
0 4.7746509e-09 0
-4.7746509e-09 4.7746509e-09 0
4.7746509e-09 4.7746509e-09 0
-4.7746509e-09 4.7746509e-09 0
0 4.7746509e-09 0
4.7746509e-09 4.7746509e-09 0
-4.7746509e-09 4.7746509e-09 0
4.7746509e-09 4.7746509e-09 0
-4.7746509e-09 4.7746509e-09 0
4.7746509e-09 4.7746509e-09 0
0 4.7746509e-09 0
-4.7746562e-09 4.7746509e-09 0
4.7746562e-09 4.7746509e-09 0
0 4.7746509e-09 0
0 4.7746509e-09 0
-4.7746562e-09 4.7746509e-09 0
4.7746562e-09 4.7746509e-09 0
0 4.7746509e-09 0
-4.7746562e-09 4.7746509e-09 0
4.7746562e-09 4.7746509e-09 0
0 4.7746509e-09 0
0 4.7746509e-09 0
-4.7746562e-09 4.7746509e-09 0
4.7746562e-09 4.7746509e-09 0
0 4.7746509e-09 0
0 4.7746509e-09 0
-4.7746562e-09 4.7746509e-09 0
1.5835357e-09 4.7746509e-09 0
-3.3920742e-06 4.7149147e-09 0
-7.9799865e-05 7.3966248e-07 0
-0.0012597982 1.0600269e-07 0
-0.0042163599 -1.9861611e-07 0
0.0028982684 3.712991e-09 0
0.00091475132 -4.6273956e-07 0
1.4861665e-05 5.3936651e-07 0
3.3163843e-08 -4.9093124e-13 0
4.8047109e-09 0 0
0 0 0
-4.7746509e-09 0 0
4.7746509e-09 0 0
0 0 0
0 0 0
-4.7746509e-09 0 0
4.7746509e-09 0 0
-4.7746509e-09 0 0
0 0 0
4.7746509e-09 0 0
-4.7746509e-09 0 0
4.7746509e-09 0 0
-4.7746509e-09 0 0
4.7746509e-09 0 0
0 0 0
-4.7746562e-09 0 0
4.7746562e-09 0 0
0 0 0
0 0 0
-4.7746562e-09 0 0
4.7746562e-09 0 0
0 0 0
-4.7746562e-09 0 0
4.7746562e-09 0 0
0 0 0
0 0 0
-4.7746562e-09 0 0
4.7746562e-09 0 0
0 0 0
0 0 0
-4.7746562e-09 0 0
4.7746562e-09 0 0
-3.7688199e-08 -4.1952444e-13 0
-1.4861508e-05 6.0346383e-07 0
-0.00091473653 -4.6271586e-07 0
-0.0028983089 3.7170258e-09 0
0.0028983064 -8.4316804e-10 0
0.00091503683 1.9612528e-07 0
1.4872507e-05 -5.1111391e-07 0
3.31802e-08 8.7291188e-13 0
4.8047264e-09 0 0
0 0 0
-4.7746509e-09 0 0
4.7746509e-09 0 0
0 0 0
0 0 0
-4.7746509e-09 0 0
4.7746509e-09 0 0
-4.7746509e-09 0 0
0 0 0
4.7746509e-09 0 0
-4.7746509e-09 0 0
4.7746509e-09 0 0
-4.7746509e-09 0 0
4.7746509e-09 0 0
0 0 0
-4.7746562e-09 0 0
4.7746562e-09 0 0
0 0 0
0 0 0
-4.7746562e-09 0 0
4.7746562e-09 0 0
0 0 0
-4.7746562e-09 0 0
4.7746562e-09 0 0
0 0 0
0 0 0
-4.7746562e-09 0 0
4.7746562e-09 0 0
0 0 0
0 0 0
-4.7746562e-09 0 0
4.7746562e-09 0 0
-3.7704424e-08 8.726263e-13 0
-1.4872894e-05 -5.112052e-07 0
-0.00091502466 1.9612445e-07 0
-0.0028983473 -8.4309132e-10 0
0.0042163651 4.0717859e-07 0
0.0012598248 -1.9849861e-07 0
7.9797304e-05 -2.2318426e-07 0
3.3874217e-06 -4.6967976e-09 0
8.0470288e-09 -4.7746509e-09 0
0 -4.7746509e-09 0
-4.7746509e-09 -4.7746509e-09 0
4.7746509e-09 -4.7746509e-09 0
0 -4.7746509e-09 0
0 -4.7746509e-09 0
-4.7746509e-09 -4.7746509e-09 0
4.7746509e-09 -4.7746509e-09 0
-4.7746509e-09 -4.7746509e-09 0
0 -4.7746509e-09 0
4.7746509e-09 -4.7746509e-09 0
-4.7746509e-09 -4.7746509e-09 0
4.7746509e-09 -4.7746509e-09 0
-4.7746509e-09 -4.7746509e-09 0
4.7746509e-09 -4.7746509e-09 0
0 -4.7746509e-09 0
-4.7746562e-09 -4.7746509e-09 0
4.7746562e-09 -4.7746509e-09 0
0 -4.7746509e-09 0
0 -4.7746509e-09 0
-4.7746562e-09 -4.7746509e-09 0
4.7746562e-09 -4.7746509e-09 0
0 -4.7746509e-09 0