<?xml version="1.0" ?>

<VTKFile type="UnstructuredGrid" version="0.1" byte_order="BigEndian">

<UnstructuredGrid>

<Piece NumberOfPoints= " 2009 " NumberOfCells=" 2009 ">

<PointData Scalars="Pressure" Vectors="Velocity">

<DataArray type="Float32" Name="Pressure" format="ascii">

15.343 16.8452 18.6693 9.22708 14.4846 7.51037 7.40308 7.40308 8.26143 8.26143 7.40308 7.40308 7.40308 7.51037 7.40308 7.40308 7.40308 7.40308 7.40308 7.40308 7.40308 7.40308 8.26143 8.26143 7.40308 7.40308 7.51037 7.40308 7.40308 8.26143 8.26143 7.40308 7.40308 8.26143 8.26143 8.36873 20.1716 9.87085 13.8408 12.2314 18.8839 20.9227 19.4205 17.489 13.6262 17.489 4.2916 8.7979 8.7979 5.90098 5.90098 8.7979 8.69061 8.69061 7.93955 8.69061 8.69061 8.69061 8.69061 8.7979 4.2916 8.7979 8.7979 6.00827 6.00827 8.7979 8.7979 4.2916 8.7979 8.7979 6.00827 6.00827 8.7979 8.7979 6.00827 6.00827 8.7979 15.9868 10.0854 13.5189 13.7335 12.7679 20.4935 17.2744 18.0255 13.8408 16.9525 7.40308 7.72496 7.72496 8.47602 8.47602 7.72496 7.72496 7.72496 5.47181 7.72496 7.72496 7.72496 7.72496 7.72496 7.0812 7.72496 7.72496 8.47602 8.47602 7.72496 7.72496 7.0812 7.72496 7.72496 8.47602 8.47602 7.72496 7.72496 8.47602 8.47602 7.72496 14.6992 13.0898 14.8065 12.7679 18.0255 10.4073 8.36873 6.97391 1.9312 9.87085 3.96972 1.50204 1.50204 3.96972 3.86243 1.50204 1.50204 1.50204 2.89681 1.50204 1.50204 1.50204 1.50204 1.50204 3.86243 1.50204 1.50204 3.86243 3.86243 1.50204 1.50204 3.86243 1.50204 1.50204 3.86243 3.86243 1.50204 1.50204 3.86243 3.86243 1.50204 9.76356 5.5791 10.8365 11.9095 11.2657 13.8408 8.04684 6.33015 4.50618 14.4846 0 7.0812 7.0812 0 0 7.0812 7.0812 7.0812 0.75102 7.0812 7.0812 7.0812 7.0812 7.0812 0 7.0812 7.0812 0 0 7.0812 7.0812 0 7.0812 7.0812 0 0 7.0812 7.0812 0 0 8.15414 20.3862 4.07701 15.4503 16.2014 18.6693 11.0511 11.5876 12.1241 8.04684 0.536443 0 0 0 0 0 0 0 0 7.0812 0 0 0 0 0 0 0 0 0 0 0 0 0 0 0 0 0 0 0 0 0 0 0.75102 3.96972 8.47602 5.90098 8.47602 14.8065 15.7722 14.4846 1.71662 14.6992 0 0 0 0 0 0 0 0 0 0 0 0 0 0 0 0 0 0 0 0 0 0 0 0 0 0 0 0 0 0 0 7.0812 1.50204 7.72496 8.7979 7.40308 7.40308 8.7979 7.72496 1.50204 7.0812 0 0 0 0 0 0 0 0 0 0 0 0 0 0 0 0 0 0 0 0 0 0 0 0 0 0 0 0 0 0 0 7.0812 1.50204 7.72496 8.7979 7.40308 8.26143 5.90098 8.47602 3.96972 0 0 0 0 0 0 0 0 0 0 0 0 0 0 0 0 0 0 0 0 0 0 0 0 0 0 0 0 0 0 0 0 0 3.96972 8.47602 5.90098 8.26143 8.26143 5.90098 8.47602 3.96972 0 0 0 0 0 0 0 0 0 0 0 0 0 0 0 0 0 0 0 0 0 0 0 0 0 0 0 0 0 0 0 0 0 3.86243 8.47602 5.90098 8.26143 7.40308 8.7979 7.72496 1.50204 7.0812 0 0 0 0 0 0 0 0 0 0 0 0 0 0 0 0 0 0 0 0 0 0 0 0 0 0 0 0 0 0 0 7.0812 1.50204 7.72496 8.7979 7.40308 7.40308 8.69061 7.72496 1.50204 7.0812 0 0 0 0 0 0 0 0 0 0 0 0 0 0 0 0 0 0 0 0 0 0 0 0 0 0 0 0 0 0 0 7.0812 1.50204 7.72496 8.69061 7.40308 7.40308 8.69061 7.72496 1.50204 7.0812 0 0 0 0 0 0 0 0 0 0 0 0 0 0 0 0 0 0 0 0 0 0 0 0 0 0 0 0 0 0 0 7.0812 1.50204 7.72496 8.69061 7.40308 7.51037 7.93955 5.47181 2.89681 0.75102 7.0812 0 0 0 0 0 0 0 0 0 0 0 0 0 0 0 0 0 0 0 0 0 0 0 0 0 0 0 0 0 7.0812 0.75102 2.89681 5.47181 7.93955 7.51037 7.40308 8.69061 7.72496 1.50204 7.0812 0 0 0 0 0 0 0 0 0 0 0 0 0 0 0 0 0 0 0 0 0 0 0 0 0 0 0 0 0 0 0 7.0812 1.50204 7.72496 8.69061 7.40308 7.40308 8.69061 7.72496 1.50204 7.0812 0 0 0 0 0 0 0 0 0 0 0 0 0 0 0 0 0 0 0 0 0 0 0 0 0 0 0 0 0 0 0 7.0812 1.50204 7.72496 8.69061 7.40308 7.40308 8.69061 7.72496 1.50204 7.0812 0 0 0 0 0 0 0 0 0 0 0 0 0 0 0 0 0 0 0 0 0 0 0 0 0 0 0 0 0 0 0 7.0812 1.50204 7.72496 8.69061 7.40308 7.40308 8.69061 7.72496 1.50204 7.0812 0 0 0 0 0 0 0 0 0 0 0 0 0 0 0 0 0 0 0 0 0 0 0 0 0 0 0 0 0 0 0 7.0812 1.50204 7.72496 8.69061 7.40308 7.40308 8.7979 7.72496 1.50204 7.0812 0 0 0 0 0 0 0 0 0 0 0 0 0 0 0 0 0 0 0 0 0 0 0 0 0 0 0 0 0 0 0 7.0812 1.50204 7.72496 8.7979 7.40308 7.40308 4.2916 7.0812 3.86243 0 0 0 0 0 0 0 0 0 0 0 0 0 0 0 0 0 0 0 0 0 0 0 0 0 0 0 0 0 0 0 0 0 3.86243 7.0812 4.2916 7.40308 7.40308 8.7979 7.72496 1.50204 7.0812 0 0 0 0 0 0 0 0 0 0 0 0 0 0 0 0 0 0 0 0 0 0 0 0 0 0 0 0 0 0 0 7.0812 1.50204 7.72496 8.7979 7.40308 7.40308 8.7979 7.72496 1.50204 7.0812 0 0 0 0 0 0 0 0 0 0 0 0 0 0 0 0 0 0 0 0 0 0 0 0 0 0 0 0 0 0 0 7.0812 1.50204 7.72496 8.7979 7.40308 8.26143 6.00827 8.47602 3.86243 0 0 0 0 0 0 0 0 0 0 0 0 0 0 0 0 0 0 0 0 0 0 0 0 0 0 0 0 0 0 0 0 0 3.86243 8.47602 6.00827 8.26143 8.26143 6.00827 8.47602 3.86243 0 0 0 0 0 0 0 0 0 0 0 0 0 0 0 0 0 0 0 0 0 0 0 0 0 0 0 0 0 0 0 0 0 3.86243 8.47602 6.00827 8.26143 7.40308 8.7979 7.72496 1.50204 7.0812 0 0 0 0 0 0 0 0 0 0 0 0 0 0 0 0 0 0 0 0 0 0 0 0 0 0 0 0 0 0 0 7.0812 1.50204 7.72496 8.7979 7.40308 7.40308 8.7979 7.72496 1.50204 7.0812 0 0 0 0 0 0 0 0 0 0 0 0 0 0 0 0 0 0 0 0 0 0 0 0 0 0 0 0 0 0 0 7.0812 1.50204 7.72496 8.7979 7.40308 7.51037 4.2916 7.0812 3.86243 0 0 0 0 0 0 0 0 0 0 0 0 0 0 0 0 0 0 0 0 0 0 0 0 0 0 0 0 0 0 0 0 0 3.86243 7.0812 4.2916 7.51037 7.40308 8.7979 7.72496 1.50204 7.0812 0 0 0 0 0 0 0 0 0 0 0 0 0 0 0 0 0 0 0 0 0 0 0 0 0 0 0 0 0 0 0 7.0812 1.50204 7.72496 8.7979 7.40308 7.40308 8.7979 7.72496 1.50204 7.0812 0 0 0 0 0 0 0 0 0 0 0 0 0 0 0 0 0 0 0 0 0 0 0 0 0 0 0 0 0 0 0 7.0812 1.50204 7.72496 8.7979 7.40308 8.26143 6.00827 8.47602 3.86243 0 0 0 0 0 0 0 0 0 0 0 0 0 0 0 0 0 0 0 0 0 0 0 0 0 0 0 0 0 0 0 0 0 3.86243 8.47602 6.00827 8.26143 8.26143 6.00827 8.47602 3.86243 0 0 0 0 0 0 0 0 0 0 0 0 0 0 0 0 0 0 0 0 0 0 0 0 0 0 0 0 0 0 0 0 0 3.86243 8.47602 6.00827 8.26143 7.40308 8.7979 7.72496 1.50204 7.0812 0 0 0 0 0 0 0 0 0 0 0 0 0 0 0 0 0 0 0 0 0 0 0 0 0 0 0 0 0 0 0 7.0812 1.50204 7.72496 8.7979 7.40308 7.40308 8.7979 7.72496 1.50204 7.0812 0 0 0 0 0 0 0 0 0 0 0 0 0 0 0 0 0 0 0 0 0 0 0 0 0 0 0 0 0 0 0 7.0812 1.50204 7.72496 8.7979 7.40308 8.26143 6.00827 8.47602 3.86243 0 0 0 0 0 0 0 0 0 0 0 0 0 0 0 0 0 0 0 0 0 0 0 0 0 0 0 0 0 0 0 0 0 3.86243 8.36873 6.00827 8.26143 8.26143 6.00827 8.47602 3.86243 0 0 0 0 0 0 0 0 0 0 0 0 0 0 0 0 0 0 0 0 0 0 0 0 0 0 0 0 0 0 0 0 0 3.86243 8.36873 6.00827 8.26143 8.36873 8.7979 7.72496 1.50204 8.15414 0 0 0 0 0 0 0 0 7.0812 0 0 0 0 0 0 0 0 0 0 0 0 0 0 0 0 0 0 0 0 0 0 7.93955 1.50204 7.72496 8.7979 8.04684 20.1716 15.9868 14.6992 9.76356 20.3862 0.75102 7.0812 7.0812 0 0 7.0812 7.0812 7.0812 0.75102 7.0812 7.0812 7.0812 7.0812 7.0812 0 7.0812 7.0812 0 0 7.0812 7.0812 0 7.0812 7.0812 0 0 7.0812 7.0812 0 0 7.93955 20.1716 4.50618 15.2357 16.2014 18.9912 9.87085 10.0854 13.0898 5.5791 4.07701 3.96972 1.50204 1.50204 3.96972 3.86243 1.50204 1.50204 1.50204 2.89681 1.50204 1.50204 1.50204 1.50204 1.50204 3.86243 1.50204 1.50204 3.86243 3.86243 1.50204 1.50204 3.86243 1.50204 1.50204 3.86243 3.86243 1.50204 1.50204 3.86243 3.86243 1.50204 4.50618 6.97391 12.2314 9.76356 11.1584 13.8408 13.5189 14.8065 10.8365 15.4503 8.47602 7.72496 7.72496 8.47602 8.47602 7.72496 7.72496 7.72496 5.47181 7.72496 7.72496 7.72496 7.72496 7.72496 7.0812 7.72496 7.72496 8.47602 8.47602 7.72496 7.72496 7.0812 7.72496 7.72496 8.47602 8.47602 7.72496 7.72496 8.36873 8.36873 7.72496 15.2357 12.2314 14.8065 13.4116 13.7335 12.2314 13.7335 12.7679 11.9095 16.2014 5.90098 8.7979 8.7979 5.90098 5.90098 8.7979 8.69061 8.69061 7.93955 8.69061 8.69061 8.69061 8.69061 8.7979 4.2916 8.7979 8.7979 6.00827 6.00827 8.7979 8.7979 4.2916 8.7979 8.7979 6.00827 6.00827 8.7979 8.7979 6.00827 6.00827 8.7979 16.2014 9.76356 13.4116 13.7335 12.446 18.8839 12.7679 18.0255 11.2657 18.6693 8.47602 7.40308 7.40308 8.26143 8.26143 7.40308 7.40308 7.40308 7.51037 7.40308 7.40308 7.40308 7.40308 7.40308 7.40308 7.40308 7.40308 8.26143 8.26143 7.40308 7.40308 7.51037 7.40308 7.40308 8.26143 8.26143 7.40308 7.40308 8.26143 8.26143 8.04684 18.9912 11.1584 13.7335 12.446 19.5278 0.1 0.1 0.1 0.1 0.1 0.1 0.1 0.1 0.1 0.1 0.1 0.1 0.1 0.1 0.1 0.1 0.1 0.1 0.1 0.1 0.1 0.1 0.1 0.1 0.1 0.1 0.1 0.1 0.1 0.1 0.1 0.1 0.1 0.1 0.1 0.1 0.1 0.1 0.1 0.1 0.1 0.1 0.1 0.1 0.1 0.1 0.1 0.1 0.1 0.1 0.1 0.1 0.1 0.1 0.1 0.1 0.1 0.1 0.1 0.1 0.1 0.1 0.1 0.1 0.1 0.1 0.1 0.1 0.1 0.1 0.1 0.1 0.1 0.1 0.1 0.1 0.1 0.1 0.1 0.1 0.1 0.1 0.1 0.1 0.1 0.1 0.1 0.1 0.1 0.1 0.1 0.1 0.1 0.1 0.1 0.1 0.1 0.1 0.1 0.1 0.1 0.1 0.1 0.1 0.1 0.1 0.1 0.1 0.1 0.1 0.1 0.1 0.1 0.1 0.1 0.1 0.1 0.1 0.1 0.1 0.1 0.1 0.1 0.1 0.1 0.1 0.1 0.1 0.1 0.1 0.1 0.1 0.1 0.1 0.1 0.1 0.1 0.1 0.1 0.1 0.1 0.1 0.1 0.1 0.1 0.1 0.1 0.1 0.1 0.1 0.1 0.1 0.1 0.1 0.1 0.1 0.1 0.1 0.1 0.1 0.1 0.1 0.1 0.1 0.1 0.1 0.1 0.1 0.1 0.1 0.1 0.1 0.1 0.1 0.1 0.1 0.1 0.1 0.1 0.1 0.1 0.1 0.1 0.1 0.1 0.1 0.1 0.1 0.1 0.1 0.1 0.1 0.1 0.1 0.1 0.1 0.1 0.1 0.1 0.1 0.1 0.1 0.1 0.1 0.1 0.1 0.1 0.1 0.1 0.1 0.1 0.1 0.1 0.1 0.1 0.1 0.1 0.1 0.1 0.1 0.1 0.1 0.1 0.1 0.1 0.1 0.1 0.1 0.1 0.1 0.1 0.1 0.1 0.1 0.1 0.1 0.1 0.1 0.1 0.1 0.1 0.1 0.1 0.1 0.1 0.1 0.1 0.1 0.1 0.1 0.1 0.1 0.1 0.1 0.1 0.1 0.1 0.1 0.1 0.1 0.1 0.1 0.1 0.1 0.1 0.1 0.1 0.1 0.1 0.1 0.1 0.1 0.1 0.1 0.1 0.1 0.1 0.1 0.1 0.1 0.1 0.1 0.1 0.1 0.1 0.1 0.1 0.1 0.1 0.1 0.1 0.1 0.1 0.1 0.1 0.1 0.1 0.1 0.1 0.1 0.1 0.1 0.1 0.1 0.1 0.1 0.1 0.1 0.1 0.1 0.1 0.1 0.1 0.1 0.1 0.1 0.1 0.1 0.1 0.1 0.1 0.1 0.1 0.1 0.1 0.1 0.1 0.1 
</DataArray>

<DataArray type="Float32" Name="Density" format="ascii">
1000.02 1000.02 1000.02 1000.01 1000.02 1000.01 1000.01 1000.01 1000.01 1000.01 1000.01 1000.01 1000.01 1000.01 1000.01 1000.01 1000.01 1000.01 1000.01 1000.01 1000.01 1000.01 1000.01 1000.01 1000.01 1000.01 1000.01 1000.01 1000.01 1000.01 1000.01 1000.01 1000.01 1000.01 1000.01 1000.01 1000.02 1000.01 1000.02 1000.01 1000.02 1000.02 1000.02 1000.02 1000.02 1000.02 1000 1000.01 1000.01 1000.01 1000.01 1000.01 1000.01 1000.01 1000.01 1000.01 1000.01 1000.01 1000.01 1000.01 1000 1000.01 1000.01 1000.01 1000.01 1000.01 1000.01 1000 1000.01 1000.01 1000.01 1000.01 1000.01 1000.01 1000.01 1000.01 1000.01 1000.02 1000.01 1000.02 1000.02 1000.01 1000.02 1000.02 1000.02 1000.02 1000.02 1000.01 1000.01 1000.01 1000.01 1000.01 1000.01 1000.01 1000.01 1000.01 1000.01 1000.01 1000.01 1000.01 1000.01 1000.01 1000.01 1000.01 1000.01 1000.01 1000.01 1000.01 1000.01 1000.01 1000.01 1000.01 1000.01 1000.01 1000.01 1000.01 1000.01 1000.01 1000.02 1000.01 1000.02 1000.01 1000.02 1000.01 1000.01 1000.01 1000 1000.01 1000 1000 1000 1000 1000 1000 1000 1000 1000 1000 1000 1000 1000 1000 1000 1000 1000 1000 1000 1000 1000 1000 1000 1000 1000 1000 1000 1000 1000 1000 1000 1000.01 1000.01 1000.01 1000.01 1000.01 1000.02 1000.01 1000.01 1000.01 1000.02 1000 1000.01 1000.01 1000 1000 1000.01 1000.01 1000.01 1000 1000.01 1000.01 1000.01 1000.01 1000.01 1000 1000.01 1000.01 1000 1000 1000.01 1000.01 1000 1000.01 1000.01 1000 1000 1000.01 1000.01 1000 1000 1000.01 1000.02 1000 1000.02 1000.02 1000.02 1000.01 1000.01 1000.01 1000.01 1000 1000 1000 1000 1000 1000 1000 1000 1000 1000.01 1000 1000 1000 1000 1000 1000 1000 1000 1000 1000 1000 1000 1000 1000 1000 1000 1000 1000 1000 1000 1000 1000 1000 1000 1000.01 1000.01 1000.01 1000.02 1000.02 1000.02 1000 1000.02 1000 1000 1000 1000 1000 1000 1000 1000 1000 1000 1000 1000 1000 1000 1000 1000 1000 1000 1000 1000 1000 1000 1000 1000 1000 1000 1000 1000 1000 1000 1000 1000.01 1000 1000.01 1000.01 1000.01 1000.01 1000.01 1000.01 1000 1000.01 1000 1000 1000 1000 1000 1000 1000 1000 1000 1000 1000 1000 1000 1000 1000 1000 1000 1000 1000 1000 1000 1000 1000 1000 1000 1000 1000 1000 1000 1000 1000 1000.01 1000 1000.01 1000.01 1000.01 1000.01 1000.01 1000.01 1000 1000 1000 1000 1000 1000 1000 1000 1000 1000 1000 1000 1000 1000 1000 1000 1000 1000 1000 1000 1000 1000 1000 1000 1000 1000 1000 1000 1000 1000 1000 1000 1000 1000 1000 1000.01 1000.01 1000.01 1000.01 1000.01 1000.01 1000 1000 1000 1000 1000 1000 1000 1000 1000 1000 1000 1000 1000 1000 1000 1000 1000 1000 1000 1000 1000 1000 1000 1000 1000 1000 1000 1000 1000 1000 1000 1000 1000 1000 1000 1000.01 1000.01 1000.01 1000.01 1000.01 1000.01 1000 1000.01 1000 1000 1000 1000 1000 1000 1000 1000 1000 1000 1000 1000 1000 1000 1000 1000 1000 1000 1000 1000 1000 1000 1000 1000 1000 1000 1000 1000 1000 1000 1000 1000.01 1000 1000.01 1000.01 1000.01 1000.01 1000.01 1000.01 1000 1000.01 1000 1000 1000 1000 1000 1000 1000 1000 1000 1000 1000 1000 1000 1000 1000 1000 1000 1000 1000 1000 1000 1000 1000 1000 1000 1000 1000 1000 1000 1000 1000 1000.01 1000 1000.01 1000.01 1000.01 1000.01 1000.01 1000.01 1000 1000.01 1000 1000 1000 1000 1000 1000 1000 1000 1000 1000 1000 1000 1000 1000 1000 1000 1000 1000 1000 1000 1000 1000 1000 1000 1000 1000 1000 1000 1000 1000 1000 1000.01 1000 1000.01 1000.01 1000.01 1000.01 1000.01 1000.01 1000 1000 1000.01 1000 1000 1000 1000 1000 1000 1000 1000 1000 1000 1000 1000 1000 1000 1000 1000 1000 1000 1000 1000 1000 1000 1000 1000 1000 1000 1000 1000 1000 1000.01 1000 1000 1000.01 1000.01 1000.01 1000.01 1000.01 1000.01 1000 1000.01 1000 1000 1000 1000 1000 1000 1000 1000 1000 1000 1000 1000 1000 1000 1000 1000 1000 1000 1000 1000 1000 1000 1000 1000 1000 1000 1000 1000 1000 1000 1000 1000.01 1000 1000.01 1000.01 1000.01 1000.01 1000.01 1000.01 1000 1000.01 1000 1000 1000 1000 1000 1000 1000 1000 1000 1000 1000 1000 1000 1000 1000 1000 1000 1000 1000 1000 1000 1000 1000 1000 1000 1000 1000 1000 1000 1000 1000 1000.01 1000 1000.01 1000.01 1000.01 1000.01 1000.01 1000.01 1000 1000.01 1000 1000 1000 1000 1000 1000 1000 1000 1000 1000 1000 1000 1000 1000 1000 1000 1000 1000 1000 1000 1000 1000 1000 1000 1000 1000 1000 1000 1000 1000 1000 1000.01 1000 1000.01 1000.01 1000.01 1000.01 1000.01 1000.01 1000 1000.01 1000 1000 1000 1000 1000 1000 1000 1000 1000 1000 1000 1000 1000 1000 1000 1000 1000 1000 1000 1000 1000 1000 1000 1000 1000 1000 1000 1000 1000 1000 1000 1000.01 1000 1000.01 1000.01 1000.01 1000.01 1000.01 1000.01 1000 1000.01 1000 1000 1000 1000 1000 1000 1000 1000 1000 1000 1000 1000 1000 1000 1000 1000 1000 1000 1000 1000 1000 1000 1000 1000 1000 1000 1000 1000 1000 1000 1000 1000.01 1000 1000.01 1000.01 1000.01 1000.01 1000 1000.01 1000 1000 1000 1000 1000 1000 1000 1000 1000 1000 1000 1000 1000 1000 1000 1000 1000 1000 1000 1000 1000 1000 1000 1000 1000 1000 1000 1000 1000 1000 1000 1000 1000 1000 1000 1000.01 1000 1000.01 1000.01 1000.01 1000.01 1000 1000.01 1000 1000 1000 1000 1000 1000 1000 1000 1000 1000 1000 1000 1000 1000 1000 1000 1000 1000 1000 1000 1000 1000 1000 1000 1000 1000 1000 1000 1000 1000 1000 1000.01 1000 1000.01 1000.01 1000.01 1000.01 1000.01 1000.01 1000 1000.01 1000 1000 1000 1000 1000 1000 1000 1000 1000 1000 1000 1000 1000 1000 1000 1000 1000 1000 1000 1000 1000 1000 1000 1000 1000 1000 1000 1000 1000 1000 1000 1000.01 1000 1000.01 1000.01 1000.01 1000.01 1000.01 1000.01 1000 1000 1000 1000 1000 1000 1000 1000 1000 1000 1000 1000 1000 1000 1000 1000 1000 1000 1000 1000 1000 1000 1000 1000 1000 1000 1000 1000 1000 1000 1000 1000 1000 1000 1000 1000.01 1000.01 1000.01 1000.01 1000.01 1000.01 1000 1000 1000 1000 1000 1000 1000 1000 1000 1000 1000 1000 1000 1000 1000 1000 1000 1000 1000 1000 1000 1000 1000 1000 1000 1000 1000 1000 1000 1000 1000 1000 1000 1000 1000 1000.01 1000.01 1000.01 1000.01 1000.01 1000.01 1000 1000.01 1000 1000 1000 1000 1000 1000 1000 1000 1000 1000 1000 1000 1000 1000 1000 1000 1000 1000 1000 1000 1000 1000 1000 1000 1000 1000 1000 1000 1000 1000 1000 1000.01 1000 1000.01 1000.01 1000.01 1000.01 1000.01 1000.01 1000 1000.01 1000 1000 1000 1000 1000 1000 1000 1000 1000 1000 1000 1000 1000 1000 1000 1000 1000 1000 1000 1000 1000 1000 1000 1000 1000 1000 1000 1000 1000 1000 1000 1000.01 1000 1000.01 1000.01 1000.01 1000.01 1000 1000.01 1000 1000 1000 1000 1000 1000 1000 1000 1000 1000 1000 1000 1000 1000 1000 1000 1000 1000 1000 1000 1000 1000 1000 1000 1000 1000 1000 1000 1000 1000 1000 1000 1000 1000 1000 1000.01 1000 1000.01 1000.01 1000.01 1000.01 1000 1000.01 1000 1000 1000 1000 1000 1000 1000 1000 1000 1000 1000 1000 1000 1000 1000 1000 1000 1000 1000 1000 1000 1000 1000 1000 1000 1000 1000 1000 1000 1000 1000 1000.01 1000 1000.01 1000.01 1000.01 1000.01 1000.01 1000.01 1000 1000.01 1000 1000 1000 1000 1000 1000 1000 1000 1000 1000 1000 1000 1000 1000 1000 1000 1000 1000 1000 1000 1000 1000 1000 1000 1000 1000 1000 1000 1000 1000 1000 1000.01 1000 1000.01 1000.01 1000.01 1000.01 1000.01 1000.01 1000 1000 1000 1000 1000 1000 1000 1000 1000 1000 1000 1000 1000 1000 1000 1000 1000 1000 1000 1000 1000 1000 1000 1000 1000 1000 1000 1000 1000 1000 1000 1000 1000 1000 1000 1000.01 1000.01 1000.01 1000.01 1000.01 1000.01 1000 1000 1000 1000 1000 1000 1000 1000 1000 1000 1000 1000 1000 1000 1000 1000 1000 1000 1000 1000 1000 1000 1000 1000 1000 1000 1000 1000 1000 1000 1000 1000 1000 1000 1000 1000.01 1000.01 1000.01 1000.01 1000.01 1000.01 1000 1000.01 1000 1000 1000 1000 1000 1000 1000 1000 1000 1000 1000 1000 1000 1000 1000 1000 1000 1000 1000 1000 1000 1000 1000 1000 1000 1000 1000 1000 1000 1000 1000 1000.01 1000 1000.01 1000.01 1000.01 1000.01 1000.01 1000.01 1000 1000.01 1000 1000 1000 1000 1000 1000 1000 1000 1000 1000 1000 1000 1000 1000 1000 1000 1000 1000 1000 1000 1000 1000 1000 1000 1000 1000 1000 1000 1000 1000 1000 1000.01 1000 1000.01 1000.01 1000.01 1000.01 1000.01 1000.01 1000 1000 1000 1000 1000 1000 1000 1000 1000 1000 1000 1000 1000 1000 1000 1000 1000 1000 1000 1000 1000 1000 1000 1000 1000 1000 1000 1000 1000 1000 1000 1000 1000 1000 1000 1000.01 1000.01 1000.01 1000.01 1000.01 1000.01 1000 1000 1000 1000 1000 1000 1000 1000 1000 1000 1000 1000 1000 1000 1000 1000 1000 1000 1000 1000 1000 1000 1000 1000 1000 1000 1000 1000 1000 1000 1000 1000 1000 1000 1000 1000.01 1000.01 1000.01 1000.01 1000.01 1000.01 1000 1000.01 1000 1000 1000 1000 1000 1000 1000 1000 1000.01 1000 1000 1000 1000 1000 1000 1000 1000 1000 1000 1000 1000 1000 1000 1000 1000 1000 1000 1000 1000 1000 1000 1000.01 1000 1000.01 1000.01 1000.01 1000.02 1000.02 1000.02 1000.01 1000.02 1000 1000.01 1000.01 1000 1000 1000.01 1000.01 1000.01 1000 1000.01 1000.01 1000.01 1000.01 1000.01 1000 1000.01 1000.01 1000 1000 1000.01 1000.01 1000 1000.01 1000.01 1000 1000 1000.01 1000.01 1000 1000 1000.01 1000.02 1000.01 1000.02 1000.02 1000.02 1000.01 1000.01 1000.01 1000.01 1000 1000 1000 1000 1000 1000 1000 1000 1000 1000 1000 1000 1000 1000 1000 1000 1000 1000 1000 1000 1000 1000 1000 1000 1000 1000 1000 1000 1000 1000 1000 1000 1000.01 1000.01 1000.01 1000.01 1000.01 1000.02 1000.02 1000.02 1000.01 1000.02 1000.01 1000.01 1000.01 1000.01 1000.01 1000.01 1000.01 1000.01 1000.01 1000.01 1000.01 1000.01 1000.01 1000.01 1000.01 1000.01 1000.01 1000.01 1000.01 1000.01 1000.01 1000.01 1000.01 1000.01 1000.01 1000.01 1000.01 1000.01 1000.01 1000.01 1000.01 1000.02 1000.01 1000.02 1000.01 1000.02 1000.01 1000.02 1000.01 1000.01 1000.02 1000.01 1000.01 1000.01 1000.01 1000.01 1000.01 1000.01 1000.01 1000.01 1000.01 1000.01 1000.01 1000.01 1000.01 1000 1000.01 1000.01 1000.01 1000.01 1000.01 1000.01 1000 1000.01 1000.01 1000.01 1000.01 1000.01 1000.01 1000.01 1000.01 1000.01 1000.02 1000.01 1000.01 1000.02 1000.01 1000.02 1000.01 1000.02 1000.01 1000.02 1000.01 1000.01 1000.01 1000.01 1000.01 1000.01 1000.01 1000.01 1000.01 1000.01 1000.01 1000.01 1000.01 1000.01 1000.01 1000.01 1000.01 1000.01 1000.01 1000.01 1000.01 1000.01 1000.01 1000.01 1000.01 1000.01 1000.01 1000.01 1000.01 1000.01 1000.01 1000.02 1000.01 1000.02 1000.01 1000.02 1000 1000 1000 1000 1000 1000 1000 1000 1000 1000 1000 1000 1000 1000 1000 1000 1000 1000 1000 1000 1000 1000 1000 1000 1000 1000 1000 1000 1000 1000 1000 1000 1000 1000 1000 1000 1000 1000 1000 1000 1000 1000 1000 1000 1000 1000 1000 1000 1000 1000 1000 1000 1000 1000 1000 1000 1000 1000 1000 1000 1000 1000 1000 1000 1000 1000 1000 1000 1000 1000 1000 1000 1000 1000 1000 1000 1000 1000 1000 1000 1000 1000 1000 1000 1000 1000 1000 1000 1000 1000 1000 1000 1000 1000 1000 1000 1000 1000 1000 1000 1000 1000 1000 1000 1000 1000 1000 1000 1000 1000 1000 1000 1000 1000 1000 1000 1000 1000 1000 1000 1000 1000 1000 1000 1000 1000 1000 1000 1000 1000 1000 1000 1000 1000 1000 1000 1000 1000 1000 1000 1000 1000 1000 1000 1000 1000 1000 1000 1000 1000 1000 1000 1000 1000 1000 1000 1000 1000 1000 1000 1000 1000 1000 1000 1000 1000 1000 1000 1000 1000 1000 1000 1000 1000 1000 1000 1000 1000 1000 1000 1000 1000 1000 1000 1000 1000 1000 1000 1000 1000 1000 1000 1000 1000 1000 1000 1000 1000 1000 1000 1000 1000 1000 1000 1000 1000 1000 1000 1000 1000 1000 1000 1000 1000 1000 1000 1000 1000 1000 1000 1000 1000 1000 1000 1000 1000 1000 1000 1000 1000 1000 1000 1000 1000 1000 1000 1000 1000 1000 1000 1000 1000 1000 1000 1000 1000 1000 1000 1000 1000 1000 1000 1000 1000 1000 1000 1000 1000 1000 1000 1000 1000 1000 1000 1000 1000 1000 1000 1000 1000 1000 1000 1000 1000 1000 1000 1000 1000 1000 1000 1000 1000 1000 1000 1000 1000 1000 1000 1000 1000 1000 1000 1000 1000 1000 1000 1000 1000 1000 1000 1000 1000 1000 1000 1000 1000 1000 1000 1000 1000 1000 1000 1000 1000 1000 1000 1000 1000 1000 1000 1000 1000 1000 1000 1000 1000 1000 1000 
</DataArray>
<DataArray type="Float32" Name="Velocity" NumberOfComponents="3" format="ascii">
0.0042955223 0.0060164384 0
0.00028205852 0.0057988153 0
-7.3467287e-05 0.0054660714 0
8.8914829e-05 0.004799203 0
8.7426844e-05 0.0040522092 0
1.6530421e-05 0.0029216029 0
3.3202303e-07 0.0040897941 0
9.7898044e-07 0.0040897927 0
4.9043865e-07 0.0029329264 0
3.3096601e-06 0.0029314705 0
-9.9124009e-07 0.0040897932 0
1.0910324e-07 0.0040897927 0
3.5937114e-07 0.004089789 0
2.7219105e-10 0.0049906634 0
-4.2792794e-07 0.0040897913 0
1.2198321e-07 0.0040897927 0
-7.7423249e-07 0.0040897927 0
6.830814e-07 0.0040897974 0
1.2974384e-06 0.0040897941 0
6.4319295e-07 0.0029209054 0
8.8786599e-08 0.0040897927 0
4.8360351e-07 0.0040897964 0
-7.4689393e-07 0.0029237031 0
5.9409143e-07 0.0029237031 0
-5.694539e-07 0.0040897932 0
1.2066189e-07 0.0040897923 0
4.5133676e-15 0.0029209682 0
-1.2066189e-07 0.0040897923 0
5.694539e-07 0.0040897932 0
-5.9111915e-07 0.0029237031 0
1.4955268e-07 0.0029237045 0
-6.3740782e-07 0.0040897941 0
6.3981872e-07 0.0040897941 0
-3.9723359e-06 0.0029237948 0
-6.8435008e-07 0.002923701 0
-4.0392544e-05 0.0040876782 0
-0.00015541556 0.0040007015 0
-0.00011887834 0.0029646952 0
-0.00090760173 0.0041212016 0
-0.00027235292 0.0038948734 0
-0.0045661754 0.0043795309 0
0.004111514 0.0011187985 0
0.00080410537 0.001158467 0
0.00022473777 0.00076676288 0
0.00016832727 0.00079163595 0
0.00020939772 0.0010354739 0
-3.2965443e-07 0.00080773979 0
4.2646298e-06 0.0011087285 0
4.9425294e-06 0.0011088114 0
-8.7818046e-07 0.00097957556 0
1.9858251e-07 0.00097936834 0
3.6758668e-06 0.0011088595 0
-1.097721e-07 0.0011091135 0
2.2581996e-06 0.0011091107 0
-6.4068917e-07 0.0014191309 0
-8.1156639e-07 0.0011091135 0
-1.7393949e-06 0.0011091133 0
6.2256049e-08 0.0011091131 0
-2.4532142e-07 0.0011091146 0
-1.7269126e-06 0.0011089242 0
-9.0777545e-09 0.00080832373 0
-5.814851e-07 0.0011089391 0
4.3475001e-07 0.0011089359 0
-9.7059126e-07 0.00097933493 0
9.4778181e-07 0.00097933505 0
3.4708646e-07 0.001108918 0
5.2096368e-07 0.001108938 0
6.1845636e-15 0.00080822408 0
-5.2096368e-07 0.001108938 0
-7.5938192e-07 0.0011089069 0
-9.413078e-07 0.00097933505 0
1.0376501e-06 0.00097933132 0
-3.3655617e-06 0.0011089065 0
-2.0993004e-06 0.0011088431 0
-8.3614907e-07 0.00097923179 0
1.1846865e-06 0.00097932189 0
-3.0108515e-05 0.0011081496 0
-0.0001701125 0.0010854331 0
-0.00020744627 0.00072360691 0
-0.00039833505 0.00055810396 0
-0.00071314257 0.00071771006 0
-0.0038192233 0.00020450832 0
0.0037018771 0.00055204274 0
0.00059422955 0.00045728165 0
0.00056700362 0.0002537409 0
0.00030410147 0.00014212808 0
0.00018264978 0.00016583106 0
2.3319189e-05 0.00015071956 0
5.718055e-06 0.00018754217 0
6.1497431e-06 0.0001870659 0
1.734493e-06 0.00016342316 0
-4.084277e-06 0.00016364377 0
1.5107973e-07 0.00018701069 0
4.1591052e-06 0.00018643391 0
2.3462444e-06 0.0001862803 0
2.671469e-06 0.00013648733 0
2.6994198e-06 0.00018633911 0
6.1220163e-07 0.00018643474 0
1.0657653e-06 0.00018643483 0
2.0420264e-06 0.00018643476 0
7.9404828e-07 0.00018660167 0
-1.8581442e-06 0.00015138162 0
2.3590019e-07 0.00018667501 0
-9.6289546e-07 0.0001866604 0
2.3526061e-06 0.00016382166 0
-2.2727111e-06 0.00016384984 0
3.0659314e-07 0.00018664935 0
2.0562022e-06 0.00018659238 0
5.3495649e-15 0.00015144219 0
-2.0562022e-06 0.00018659238 0
-3.0167462e-06 0.00018671498 0
-2.7888436e-06 0.00016379543 0
-4.573194e-06 0.00016351868 0
-3.5787716e-06 0.00018694092 0
-1.8697996e-06 0.00018718823 0
1.9221761e-06 0.00016339202 0
-8.2994275e-06 0.00016324827 0
-1.6978029e-05 0.00018807442 0
-0.0001444198 0.0001932474 0
-0.00031119477 0.00016855229 0
-0.00036778837 0.00037696015 0
-0.00051255838 0.00047640913 0
-0.0039825896 0.00079416577 0
0.0041437265 0.0002997102 0
0.00092061353 0.0002575166 0
0.00041050103 0.00018917951 0
9.6784512e-05 9.9729594e-05 0
0.00011291762 8.4205843e-05 0
8.8083516e-06 5.3565855e-05 0
3.6840872e-06 9.5007934e-05 0
2.8066399e-06 9.4931958e-05 0
6.4188657e-07 5.669177e-05 0
2.6870923e-06 5.6678542e-05 0
-6.7756901e-07 9.4849122e-05 0
-2.3087001e-07 9.4842137e-05 0
-3.2528564e-07 9.4819588e-05 0
-3.7884297e-07 0.00011446149 0
-3.324061e-07 9.4815332e-05 0
-4.3173816e-07 9.4842166e-05 0
3.6511773e-07 9.4842166e-05 0
1.1193358e-06 9.4841271e-05 0
5.1181161e-07 9.4845069e-05 0
6.4430054e-07 5.358367e-05 0
4.5820366e-07 9.4851428e-05 0
3.9930342e-07 9.4848685e-05 0
-2.990751e-06 5.6458481e-05 0
2.9885305e-06 5.6458597e-05 0
-4.0436331e-07 9.4848583e-05 0
2.1307867e-08 9.4848408e-05 0
-2.7212009e-15 5.3646087e-05 0
-2.1307867e-08 9.4848408e-05 0
4.044027e-07 9.484859e-05 0
-2.9878802e-06 5.6458586e-05 0
3.0008525e-06 5.6457735e-05 0
1.4788586e-07 9.4849092e-05 0
-1.2880641e-07 9.485054e-05 0
-2.9971875e-06 5.6514589e-05 0
-9.1396687e-06 5.6286339e-05 0
-1.70767e-05 9.4787392e-05 0
-0.00015094099 4.2381012e-05 0
-0.00017270229 0.00015580065 0
-0.00017727638 0.00028744442 0
-0.0010048309 0.00015714622 0
-0.0040833503 0.00025180037 0
0.0041471394 0.00040531679 0
0.0010137885 7.535758e-05 0
0.00026013961 0.00010294477 0
0.00014891091 9.0992784e-05 0
0.00011795086 8.9678135e-05 0
4.9493683e-06 1.9468457e-06 0
1.808713e-06 8.3533341e-05 0
9.4528957e-07 8.3521132e-05 0
1.1060819e-06 1.9491888e-06 0
-6.3240782e-07 1.9143199e-06 0
-3.4924963e-07 8.3517196e-05 0
-1.2372254e-07 8.3516614e-05 0
-6.7768241e-08 8.3499901e-05 0
2.844088e-10 7.5026663e-05 0
5.2115595e-08 8.3500046e-05 0
-3.1682418e-07 8.3516657e-05 0
-1.9845547e-07 8.3516607e-05 0
1.3242296e-08 8.3516788e-05 0
7.1476833e-09 8.3519146e-05 0
-2.0776227e-08 1.9015974e-06 0
7.2360859e-07 8.3520994e-05 0
4.0329451e-07 8.3517167e-05 0
3.6702352e-07 1.9143997e-06 0
-3.6702352e-07 1.9143999e-06 0
-4.0385842e-07 8.351697e-05 0
1.1287395e-07 8.3517545e-05 0
9.8054895e-16 1.9075646e-06 0
-1.1287395e-07 8.3517545e-05 0
4.0385842e-07 8.351697e-05 0
3.6702349e-07 1.9143999e-06 0
-3.6702366e-07 1.9143984e-06 0
7.8662829e-08 8.3516985e-05 0
-7.8662829e-08 8.3516992e-05 0
3.6359202e-07 1.9144857e-06 0
-4.0391806e-06 1.8973791e-06 0
-2.4440096e-05 8.4174106e-05 0
-0.00014424504 0.00020870531 0
-7.6567172e-05 7.8684025e-05 0
-0.00019411133 0.00013419252 0
-0.0010718555 0.0001836344 0
-0.0039658663 0.00022881714 0
0.0030940238 0.00016201528 0
0.00081928942 0.00018251524 0
0.00032959157 0.00010852152 0
6.4603577e-05 0.00010420668 0
3.3983502e-05 6.9682155e-06 0
2.0822056e-06 1.6037923e-09 0
-1.3888506e-09 4.1676853e-06 0
4.6057664e-09 4.1676758e-06 0
-7.9582364e-14 1.9314808e-09 0
1.0538684e-13 1.9134052e-09 0
-4.6491091e-09 4.167674e-06 0
4.4846682e-09 4.1676722e-06 0
-1.4558267e-07 4.1676017e-06 0
0 8.1450256e-05 0
1.4558276e-07 4.1676017e-06 0
-4.3934123e-09 4.1676722e-06 0
4.7638662e-09 4.1676722e-06 0
-4.8227426e-09 4.1676726e-06 0
4.70932e-09 4.1676776e-06 0
-3.4556918e-14 1.8971957e-09 0
-4.8236846e-09 4.1676781e-06 0
4.6715138e-09 4.1676735e-06 0
-1.030146e-13 1.9139186e-09 0
1.0301462e-13 1.9139192e-09 0
-4.6715138e-09 4.1676735e-06 0
4.7858544e-09 4.1676744e-06 0
0 1.9043047e-09 0
-4.7858544e-09 4.1676744e-06 0
4.6715138e-09 4.1676735e-06 0
-1.0301462e-13 1.9139192e-09 0
1.0301453e-13 1.9139175e-09 0
-4.7560804e-09 4.1676735e-06 0
4.7560804e-09 4.1676735e-06 0
-1.0301905e-13 1.9139965e-09 0
2.441182e-13 1.9018853e-09 0
-6.6800297e-08 4.2914712e-06 0
-2.3136895e-06 1.7056927e-05 0
-5.6676512e-05 8.6824966e-06 0
-0.00016386322 2.5330755e-05 0
-0.00097854761 4.268947e-07 0
-0.0029324046 1.8730856e-05 0
0.0040572388 6.6954191e-05 0
0.0011315349 8.2621045e-05 0
0.00022972336 9.7802593e-05 0
7.5031341e-05 1.9878727e-05 0
0.00015333318 5.7891804e-05 0
6.9183993e-06 -1.1997446e-08 0
2.0427329e-09 1.2760643e-10 0
4.7746509e-09 1.2760076e-10 0
0 -4.7746509e-09 0
0 -4.7746509e-09 0
-4.7746509e-09 1.2760037e-10 0
4.7746509e-09 1.2759818e-10 0
-4.7745847e-09 1.2742096e-10 0
0 3.4082245e-06 0
4.7745847e-09 1.2742096e-10 0
-4.7746509e-09 1.2759818e-10 0
4.7746509e-09 1.2759818e-10 0
-4.7746509e-09 1.2759852e-10 0
4.7746509e-09 1.2760237e-10 0
0 -4.7746509e-09 0
-4.7746562e-09 1.2760268e-10 0
4.7746562e-09 1.2760004e-10 0
0 -4.7746509e-09 0
0 -4.7746509e-09 0
-4.7746562e-09 1.2760004e-10 0
4.7746562e-09 1.276009e-10 0
0 -4.7746509e-09 0
-4.7746562e-09 1.276009e-10 0
4.7746562e-09 1.2760004e-10 0
0 -4.7746509e-09 0
0 -4.7746509e-09 0
-4.7746562e-09 1.2760004e-10 0
4.7746562e-09 1.2760004e-10 0
0 -4.7746509e-09 0
-4.8205746e-09 -4.7746509e-09 0
-4.1724234e-06 -1.50982e-12 0
-8.3525993e-05 1.2002017e-06 0
-9.5026742e-05 3.881079e-06 0
-0.00018760886 8.9035275e-06 0
-0.0011086868 4.559784e-06 0
-0.0040897867 3.2631101e-07 0
0.0040897974 1.7977543e-05 0
0.001108487 2.0713034e-05 0
0.00018735997 8.1550243e-06 0
9.497979e-05 6.730636e-06 0
8.3519924e-05 6.4702817e-06 0
4.1676781e-06 4.2228967e-09 0
1.2760257e-10 4.7746509e-09 0
4.7746509e-09 4.7746509e-09 0
0 4.7746509e-09 0
0 4.7746509e-09 0
-4.7746509e-09 4.7746509e-09 0
4.7746509e-09 4.7746509e-09 0
-4.7746509e-09 4.7746509e-09 0
0 7.9911313e-09 0
4.7746509e-09 4.7746509e-09 0
-4.7746509e-09 4.7746509e-09 0
4.7746509e-09 4.7746509e-09 0
-4.7746509e-09 4.7746509e-09 0
4.7746509e-09 4.7746509e-09 0
0 4.7746509e-09 0
-4.7746562e-09 4.7746509e-09 0
4.7746562e-09 4.7746509e-09 0
0 4.7746509e-09 0
0 4.7746509e-09 0
-4.7746562e-09 4.7746509e-09 0
4.7746562e-09 4.7746509e-09 0
0 4.7746509e-09 0
-4.7746562e-09 4.7746509e-09 0