<?xml version="1.0" ?>

<VTKFile type="UnstructuredGrid" version="0.1" byte_order="BigEndian">

<UnstructuredGrid>

<Piece NumberOfPoints= " 2009 " NumberOfCells=" 2009 ">

<PointData Scalars="Pressure" Vectors="Velocity">

<DataArray type="Float32" Name="Pressure" format="ascii">

16.6306 15.7722 20.7081 12.3387 7.51037 9.54897 7.40308 7.40308 9.97815 9.97815 7.40308 7.40308 7.40308 6.97391 7.40308 7.40308 7.40308 7.40308 7.40308 9.54897 7.40308 7.40308 9.97815 9.97815 7.40308 7.40308 9.54897 7.40308 7.40308 9.97815 9.97815 7.40308 7.40308 9.97815 9.97815 7.40308 7.40308 15.6649 22.7469 15.343 17.9182 22.4249 16.7379 21.1373 9.76356 5.25722 8.69061 5.36451 5.36451 9.22708 9.22708 5.36451 5.36451 5.36451 6.22285 5.36451 5.36451 5.36451 5.36451 5.36451 8.69061 5.36451 5.36451 9.22708 9.22708 5.36451 5.36451 8.69061 5.36451 5.36451 9.22708 9.22708 5.36451 5.36451 9.22708 9.22708 5.36451 5.36451 13.3043 18.1328 11.8022 18.562 23.0688 15.6649 23.8199 10.1927 6.97391 5.68639 6.75932 6.75932 5.68639 5.68639 6.75932 6.75932 6.75932 6.43744 6.75932 6.75932 6.75932 6.75932 6.75932 5.68639 6.75932 6.75932 5.68639 5.68639 6.75932 6.75932 5.68639 6.75932 6.75932 5.68639 5.68639 6.75932 6.75932 5.68639 5.68639 6.75932 6.75932 12.446 24.0345 16.6306 22.8542 12.3387 8.04684 8.58331 12.1241 3.96972 0 3.86243 3.86243 0 0 3.86243 3.86243 3.86243 5.36451 3.86243 3.86243 3.86243 3.86243 3.86243 0 3.86243 3.86243 0 0 3.86243 3.86243 0 3.86243 3.86243 0 0 3.86243 3.86243 0 0 3.86243 3.96972 8.26143 13.8408 11.2657 15.343 16.9525 17.1671 18.0255 8.26143 0 0 0 0 0 0 0 0 0 1.71662 0 0 0 0 0 0 0 0 0 0 0 0 0 0 0 0 0 0 0 0 0 0 0 3.75514 6.97391 5.25722 7.51037 10.5146 9.33438 5.68639 0 0 0 0 0 0 0 0 0 0 0 0 0 0 0 0 0 0 0 0 0 0 0 0 0 0 0 0 0 0 0 0 0 0 0 5.68639 9.22708 10.1927 7.40308 5.36451 6.75932 3.86243 0 0 0 0 0 0 0 0 0 0 0 0 0 0 0 0 0 0 0 0 0 0 0 0 0 0 0 0 0 0 0 0 0 3.86243 6.75932 5.36451 7.40308 7.40308 5.36451 6.75932 3.86243 0 0 0 0 0 0 0 0 0 0 0 0 0 0 0 0 0 0 0 0 0 0 0 0 0 0 0 0 0 0 0 0 0 3.86243 6.75932 5.36451 7.40308 9.97815 9.22708 5.68639 0 0 0 0 0 0 0 0 0 0 0 0 0 0 0 0 0 0 0 0 0 0 0 0 0 0 0 0 0 0 0 0 0 0 0 5.68639 9.22708 9.97815 9.97815 9.22708 5.68639 0 0 0 0 0 0 0 0 0 0 0 0 0 0 0 0 0 0 0 0 0 0 0 0 0 0 0 0 0 0 0 0 0 0 0 5.68639 9.22708 9.97815 7.40308 5.36451 6.75932 3.86243 0 0 0 0 0 0 0 0 0 0 0 0 0 0 0 0 0 0 0 0 0 0 0 0 0 0 0 0 0 0 0 0 0 3.86243 6.75932 5.36451 7.40308 7.40308 5.36451 6.75932 3.86243 0 0 0 0 0 0 0 0 0 0 0 0 0 0 0 0 0 0 0 0 0 0 0 0 0 0 0 0 0 0 0 0 0 3.86243 6.75932 5.36451 7.40308 7.40308 5.36451 6.75932 3.86243 0 0 0 0 0 0 0 0 0 0 0 0 0 0 0 0 0 0 0 0 0 0 0 0 0 0 0 0 0 0 0 0 0 3.86243 6.75932 5.36451 7.40308 6.97391 6.22285 6.43744 5.36451 1.71662 0 0 0 0 0 0 0 0 0 0 0 0 0 0 0 0 0 0 0 0 0 0 0 0 0 0 0 0 0 0 0 1.71662 5.36451 6.43744 6.22285 6.97391 7.40308 5.36451 6.75932 3.86243 0 0 0 0 0 0 0 0 0 0 0 0 0 0 0 0 0 0 0 0 0 0 0 0 0 0 0 0 0 0 0 0 0 3.86243 6.75932 5.36451 7.40308 7.40308 5.36451 6.75932 3.86243 0 0 0 0 0 0 0 0 0 0 0 0 0 0 0 0 0 0 0 0 0 0 0 0 0 0 0 0 0 0 0 0 0 3.86243 6.75932 5.36451 7.40308 7.40308 5.36451 6.75932 3.86243 0 0 0 0 0 0 0 0 0 0 0 0 0 0 0 0 0 0 0 0 0 0 0 0 0 0 0 0 0 0 0 0 0 3.86243 6.75932 5.36451 7.40308 7.40308 5.36451 6.75932 3.86243 0 0 0 0 0 0 0 0 0 0 0 0 0 0 0 0 0 0 0 0 0 0 0 0 0 0 0 0 0 0 0 0 0 3.86243 6.75932 5.36451 7.40308 7.40308 5.36451 6.75932 3.86243 0 0 0 0 0 0 0 0 0 0 0 0 0 0 0 0 0 0 0 0 0 0 0 0 0 0 0 0 0 0 0 0 0 3.86243 6.75932 5.36451 7.40308 9.54897 8.69061 5.68639 0 0 0 0 0 0 0 0 0 0 0 0 0 0 0 0 0 0 0 0 0 0 0 0 0 0 0 0 0 0 0 0 0 0 0 5.68639 8.69061 9.54897 7.40308 5.36451 6.75932 3.86243 0 0 0 0 0 0 0 0 0 0 0 0 0 0 0 0 0 0 0 0 0 0 0 0 0 0 0 0 0 0 0 0 0 3.86243 6.75932 5.36451 7.40308 7.40308 5.36451 6.75932 3.86243 0 0 0 0 0 0 0 0 0 0 0 0 0 0 0 0 0 0 0 0 0 0 0 0 0 0 0 0 0 0 0 0 0 3.86243 6.75932 5.36451 7.40308 9.97815 9.22708 5.68639 0 0 0 0 0 0 0 0 0 0 0 0 0 0 0 0 0 0 0 0 0 0 0 0 0 0 0 0 0 0 0 0 0 0 0 5.68639 9.22708 9.97815 9.97815 9.22708 5.68639 0 0 0 0 0 0 0 0 0 0 0 0 0 0 0 0 0 0 0 0 0 0 0 0 0 0 0 0 0 0 0 0 0 0 0 5.68639 9.22708 9.97815 7.40308 5.36451 6.75932 3.86243 0 0 0 0 0 0 0 0 0 0 0 0 0 0 0 0 0 0 0 0 0 0 0 0 0 0 0 0 0 0 0 0 0 3.86243 6.75932 5.36451 7.40308 7.40308 5.36451 6.75932 3.86243 0 0 0 0 0 0 0 0 0 0 0 0 0 0 0 0 0 0 0 0 0 0 0 0 0 0 0 0 0 0 0 0 0 3.86243 6.75932 5.36451 7.40308 9.54897 8.69061 5.68639 0 0 0 0 0 0 0 0 0 0 0 0 0 0 0 0 0 0 0 0 0 0 0 0 0 0 0 0 0 0 0 0 0 0 0 5.68639 8.69061 9.54897 7.40308 5.36451 6.75932 3.86243 0 0 0 0 0 0 0 0 0 0 0 0 0 0 0 0 0 0 0 0 0 0 0 0 0 0 0 0 0 0 0 0 0 3.86243 6.75932 5.36451 7.40308 7.40308 5.36451 6.75932 3.86243 0 0 0 0 0 0 0 0 0 0 0 0 0 0 0 0 0 0 0 0 0 0 0 0 0 0 0 0 0 0 0 0 0 3.86243 6.75932 5.36451 7.40308 9.97815 9.22708 5.68639 0 0 0 0 0 0 0 0 0 0 0 0 0 0 0 0 0 0 0 0 0 0 0 0 0 0 0 0 0 0 0 0 0 0 0 5.68639 9.22708 9.97815 9.97815 9.22708 5.68639 0 0 0 0 0 0 0 0 0 0 0 0 0 0 0 0 0 0 0 0 0 0 0 0 0 0 0 0 0 0 0 0 0 0 0 5.68639 9.22708 9.97815 7.40308 5.36451 6.75932 3.86243 0 0 0 0 0 0 0 0 0 0 0 0 0 0 0 0 0 0 0 0 0 0 0 0 0 0 0 0 0 0 0 0 0 3.86243 6.75932 5.36451 7.40308 7.40308 5.36451 6.75932 3.86243 0 0 0 0 0 0 0 0 0 0 0 0 0 0 0 0 0 0 0 0 0 0 0 0 0 0 0 0 0 0 0 0 0 3.86243 6.75932 5.36451 7.40308 9.97815 9.22708 5.68639 0 0 0 0 0 0 0 0 0 0 0 0 0 0 0 0 0 0 0 0 0 0 0 0 0 0 0 0 0 0 0 0 0 0 0 5.68639 9.22708 9.97815 9.97815 9.22708 5.68639 0 0 0 0 0 0 0 0 0 0 0 0 0 0 0 0 0 0 0 0 0 0 0 0 0 0 0 0 0 0 0 0 0 0 0 5.68639 9.22708 9.97815 7.40308 5.36451 6.75932 3.86243 0 0 0 0 0 0 0 0 0 0 0 0 0 0 0 0 0 0 0 0 0 0 0 0 0 0 0 0 0 0 0 0 0 3.86243 6.75932 5.36451 7.40308 7.40308 5.36451 6.75932 3.96972 0 0 0 0 0 0 0 0 0 1.71662 0 0 0 0 0 0 0 0 0 0 0 0 0 0 0 0 0 0 0 0 0 0 0 3.96972 6.75932 5.36451 7.40308 15.6649 13.3043 12.446 8.26143 3.75514 0 3.86243 3.86243 0 0 3.86243 3.86243 3.86243 5.36451 3.86243 3.86243 3.86243 3.86243 3.86243 0 3.86243 3.86243 0 0 3.86243 3.86243 0 3.86243 3.86243 0 0 3.86243 3.86243 0 0 3.86243 3.96972 4.39889 12.8752 13.6262 15.8795 22.7469 18.1328 24.0345 13.8408 6.97391 5.68639 6.75932 6.75932 5.68639 5.68639 6.75932 6.75932 6.75932 6.43744 6.75932 6.75932 6.75932 6.75932 6.75932 5.68639 6.75932 6.75932 5.68639 5.68639 6.75932 6.75932 5.68639 6.75932 6.75932 5.68639 5.68639 6.75932 6.75932 5.68639 5.68639 6.75932 6.75932 12.8752 23.498 17.8109 21.1373 15.343 11.8022 16.6306 11.2657 5.25722 9.22708 5.36451 5.36451 9.22708 9.22708 5.36451 5.36451 5.36451 6.22285 5.36451 5.36451 5.36451 5.36451 5.36451 8.69061 5.36451 5.36451 9.22708 9.22708 5.36451 5.36451 8.69061 5.36451 5.36451 9.22708 9.22708 5.36451 5.36451 9.22708 9.22708 5.36451 5.36451 13.6262 17.8109 11.6949 18.562 17.9182 18.562 22.8542 15.343 7.51037 10.1927 7.40308 7.40308 9.97815 9.97815 7.40308 7.40308 7.40308 6.97391 7.40308 7.40308 7.40308 7.40308 7.40308 9.54897 7.40308 7.40308 9.97815 9.97815 7.40308 7.40308 9.54897 7.40308 7.40308 9.97815 9.97815 7.40308 7.40308 9.97815 9.97815 7.40308 7.40308 15.8795 21.1373 18.562 13.6262 0.1 0.1 0.1 0.1 0.1 0.1 0.1 0.1 0.1 0.1 0.1 0.1 0.1 0.1 0.1 0.1 0.1 0.1 0.1 0.1 0.1 0.1 0.1 0.1 0.1 0.1 0.1 0.1 0.1 0.1 0.1 0.1 0.1 0.1 0.1 0.1 0.1 0.1 0.1 0.1 0.1 0.1 0.1 0.1 0.1 0.1 0.1 0.1 0.1 0.1 0.1 0.1 0.1 0.1 0.1 0.1 0.1 0.1 0.1 0.1 0.1 0.1 0.1 0.1 0.1 0.1 0.1 0.1 0.1 0.1 0.1 0.1 0.1 0.1 0.1 0.1 0.1 0.1 0.1 0.1 0.1 0.1 0.1 0.1 0.1 0.1 0.1 0.1 0.1 0.1 0.1 0.1 0.1 0.1 0.1 0.1 0.1 0.1 0.1 0.1 0.1 0.1 0.1 0.1 0.1 0.1 0.1 0.1 0.1 0.1 0.1 0.1 0.1 0.1 0.1 0.1 0.1 0.1 0.1 0.1 0.1 0.1 0.1 0.1 0.1 0.1 0.1 0.1 0.1 0.1 0.1 0.1 0.1 0.1 0.1 0.1 0.1 0.1 0.1 0.1 0.1 0.1 0.1 0.1 0.1 0.1 0.1 0.1 0.1 0.1 0.1 0.1 0.1 0.1 0.1 0.1 0.1 0.1 0.1 0.1 0.1 0.1 0.1 0.1 0.1 0.1 0.1 0.1 0.1 0.1 0.1 0.1 0.1 0.1 0.1 0.1 0.1 0.1 0.1 0.1 0.1 0.1 0.1 0.1 0.1 0.1 0.1 0.1 0.1 0.1 0.1 0.1 0.1 0.1 0.1 0.1 0.1 0.1 0.1 0.1 0.1 0.1 0.1 0.1 0.1 0.1 0.1 0.1 0.1 0.1 0.1 0.1 0.1 0.1 0.1 0.1 0.1 0.1 0.1 0.1 0.1 0.1 0.1 0.1 0.1 0.1 0.1 0.1 0.1 0.1 0.1 0.1 0.1 0.1 0.1 0.1 0.1 0.1 0.1 0.1 0.1 0.1 0.1 0.1 0.1 0.1 0.1 0.1 0.1 0.1 0.1 0.1 0.1 0.1 0.1 0.1 0.1 0.1 0.1 0.1 0.1 0.1 0.1 0.1 0.1 0.1 0.1 0.1 0.1 0.1 0.1 0.1 0.1 0.1 0.1 0.1 0.1 0.1 0.1 0.1 0.1 0.1 0.1 0.1 0.1 0.1 0.1 0.1 0.1 0.1 0.1 0.1 0.1 0.1 0.1 0.1 0.1 0.1 0.1 0.1 0.1 0.1 0.1 0.1 0.1 0.1 0.1 0.1 0.1 0.1 0.1 0.1 0.1 0.1 0.1 0.1 0.1 0.1 0.1 0.1 0.1 0.1 0.1 0.1 0.1 0.1 0.1 0.1 
</DataArray>

<DataArray type="Float32" Name="Density" format="ascii">
1000.02 1000.02 1000.02 1000.01 1000.01 1000.01 1000.01 1000.01 1000.01 1000.01 1000.01 1000.01 1000.01 1000.01 1000.01 1000.01 1000.01 1000.01 1000.01 1000.01 1000.01 1000.01 1000.01 1000.01 1000.01 1000.01 1000.01 1000.01 1000.01 1000.01 1000.01 1000.01 1000.01 1000.01 1000.01 1000.01 1000.01 1000.02 1000.03 1000.02 1000.02 1000.02 1000.02 1000.02 1000.01 1000.01 1000.01 1000.01 1000.01 1000.01 1000.01 1000.01 1000.01 1000.01 1000.01 1000.01 1000.01 1000.01 1000.01 1000.01 1000.01 1000.01 1000.01 1000.01 1000.01 1000.01 1000.01 1000.01 1000.01 1000.01 1000.01 1000.01 1000.01 1000.01 1000.01 1000.01 1000.01 1000.01 1000.01 1000.02 1000.01 1000.02 1000.03 1000.02 1000.03 1000.01 1000.01 1000.01 1000.01 1000.01 1000.01 1000.01 1000.01 1000.01 1000.01 1000.01 1000.01 1000.01 1000.01 1000.01 1000.01 1000.01 1000.01 1000.01 1000.01 1000.01 1000.01 1000.01 1000.01 1000.01 1000.01 1000.01 1000.01 1000.01 1000.01 1000.01 1000.01 1000.01 1000.01 1000.01 1000.03 1000.02 1000.03 1000.01 1000.01 1000.01 1000.01 1000 1000 1000 1000 1000 1000 1000 1000 1000 1000.01 1000 1000 1000 1000 1000 1000 1000 1000 1000 1000 1000 1000 1000 1000 1000 1000 1000 1000 1000 1000 1000 1000 1000 1000.01 1000.02 1000.01 1000.02 1000.02 1000.02 1000.02 1000.01 1000 1000 1000 1000 1000 1000 1000 1000 1000 1000 1000 1000 1000 1000 1000 1000 1000 1000 1000 1000 1000 1000 1000 1000 1000 1000 1000 1000 1000 1000 1000 1000 1000 1000 1000.01 1000.01 1000.01 1000.01 1000.01 1000.01 1000 1000 1000 1000 1000 1000 1000 1000 1000 1000 1000 1000 1000 1000 1000 1000 1000 1000 1000 1000 1000 1000 1000 1000 1000 1000 1000 1000 1000 1000 1000 1000 1000 1000 1000 1000.01 1000.01 1000.01 1000.01 1000.01 1000.01 1000 1000 1000 1000 1000 1000 1000 1000 1000 1000 1000 1000 1000 1000 1000 1000 1000 1000 1000 1000 1000 1000 1000 1000 1000 1000 1000 1000 1000 1000 1000 1000 1000 1000 1000 1000.01 1000.01 1000.01 1000.01 1000.01 1000.01 1000 1000 1000 1000 1000 1000 1000 1000 1000 1000 1000 1000 1000 1000 1000 1000 1000 1000 1000 1000 1000 1000 1000 1000 1000 1000 1000 1000 1000 1000 1000 1000 1000 1000 1000 1000.01 1000.01 1000.01 1000.01 1000.01 1000.01 1000 1000 1000 1000 1000 1000 1000 1000 1000 1000 1000 1000 1000 1000 1000 1000 1000 1000 1000 1000 1000 1000 1000 1000 1000 1000 1000 1000 1000 1000 1000 1000 1000 1000 1000 1000.01 1000.01 1000.01 1000.01 1000.01 1000.01 1000 1000 1000 1000 1000 1000 1000 1000 1000 1000 1000 1000 1000 1000 1000 1000 1000 1000 1000 1000 1000 1000 1000 1000 1000 1000 1000 1000 1000 1000 1000 1000 1000 1000 1000 1000.01 1000.01 1000.01 1000.01 1000.01 1000.01 1000 1000 1000 1000 1000 1000 1000 1000 1000 1000 1000 1000 1000 1000 1000 1000 1000 1000 1000 1000 1000 1000 1000 1000 1000 1000 1000 1000 1000 1000 1000 1000 1000 1000 1000 1000.01 1000.01 1000.01 1000.01 1000.01 1000.01 1000 1000 1000 1000 1000 1000 1000 1000 1000 1000 1000 1000 1000 1000 1000 1000 1000 1000 1000 1000 1000 1000 1000 1000 1000 1000 1000 1000 1000 1000 1000 1000 1000 1000 1000 1000.01 1000.01 1000.01 1000.01 1000.01 1000.01 1000 1000 1000 1000 1000 1000 1000 1000 1000 1000 1000 1000 1000 1000 1000 1000 1000 1000 1000 1000 1000 1000 1000 1000 1000 1000 1000 1000 1000 1000 1000 1000 1000 1000 1000 1000.01 1000.01 1000.01 1000.01 1000.01 1000.01 1000.01 1000 1000 1000 1000 1000 1000 1000 1000 1000 1000 1000 1000 1000 1000 1000 1000 1000 1000 1000 1000 1000 1000 1000 1000 1000 1000 1000 1000 1000 1000 1000 1000 1000 1000.01 1000.01 1000.01 1000.01 1000.01 1000.01 1000.01 1000 1000 1000 1000 1000 1000 1000 1000 1000 1000 1000 1000 1000 1000 1000 1000 1000 1000 1000 1000 1000 1000 1000 1000 1000 1000 1000 1000 1000 1000 1000 1000 1000 1000 1000 1000.01 1000.01 1000.01 1000.01 1000.01 1000.01 1000 1000 1000 1000 1000 1000 1000 1000 1000 1000 1000 1000 1000 1000 1000 1000 1000 1000 1000 1000 1000 1000 1000 1000 1000 1000 1000 1000 1000 1000 1000 1000 1000 1000 1000 1000.01 1000.01 1000.01 1000.01 1000.01 1000.01 1000 1000 1000 1000 1000 1000 1000 1000 1000 1000 1000 1000 1000 1000 1000 1000 1000 1000 1000 1000 1000 1000 1000 1000 1000 1000 1000 1000 1000 1000 1000 1000 1000 1000 1000 1000.01 1000.01 1000.01 1000.01 1000.01 1000.01 1000 1000 1000 1000 1000 1000 1000 1000 1000 1000 1000 1000 1000 1000 1000 1000 1000 1000 1000 1000 1000 1000 1000 1000 1000 1000 1000 1000 1000 1000 1000 1000 1000 1000 1000 1000.01 1000.01 1000.01 1000.01 1000.01 1000.01 1000 1000 1000 1000 1000 1000 1000 1000 1000 1000 1000 1000 1000 1000 1000 1000 1000 1000 1000 1000 1000 1000 1000 1000 1000 1000 1000 1000 1000 1000 1000 1000 1000 1000 1000 1000.01 1000.01 1000.01 1000.01 1000.01 1000.01 1000 1000 1000 1000 1000 1000 1000 1000 1000 1000 1000 1000 1000 1000 1000 1000 1000 1000 1000 1000 1000 1000 1000 1000 1000 1000 1000 1000 1000 1000 1000 1000 1000 1000 1000 1000.01 1000.01 1000.01 1000.01 1000.01 1000.01 1000 1000 1000 1000 1000 1000 1000 1000 1000 1000 1000 1000 1000 1000 1000 1000 1000 1000 1000 1000 1000 1000 1000 1000 1000 1000 1000 1000 1000 1000 1000 1000 1000 1000 1000 1000.01 1000.01 1000.01 1000.01 1000.01 1000.01 1000 1000 1000 1000 1000 1000 1000 1000 1000 1000 1000 1000 1000 1000 1000 1000 1000 1000 1000 1000 1000 1000 1000 1000 1000 1000 1000 1000 1000 1000 1000 1000 1000 1000 1000 1000.01 1000.01 1000.01 1000.01 1000.01 1000.01 1000 1000 1000 1000 1000 1000 1000 1000 1000 1000 1000 1000 1000 1000 1000 1000 1000 1000 1000 1000 1000 1000 1000 1000 1000 1000 1000 1000 1000 1000 1000 1000 1000 1000 1000 1000.01 1000.01 1000.01 1000.01 1000.01 1000.01 1000 1000 1000 1000 1000 1000 1000 1000 1000 1000 1000 1000 1000 1000 1000 1000 1000 1000 1000 1000 1000 1000 1000 1000 1000 1000 1000 1000 1000 1000 1000 1000 1000 1000 1000 1000.01 1000.01 1000.01 1000.01 1000.01 1000.01 1000 1000 1000 1000 1000 1000 1000 1000 1000 1000 1000 1000 1000 1000 1000 1000 1000 1000 1000 1000 1000 1000 1000 1000 1000 1000 1000 1000 1000 1000 1000 1000 1000 1000 1000 1000.01 1000.01 1000.01 1000.01 1000.01 1000.01 1000 1000 1000 1000 1000 1000 1000 1000 1000 1000 1000 1000 1000 1000 1000 1000 1000 1000 1000 1000 1000 1000 1000 1000 1000 1000 1000 1000 1000 1000 1000 1000 1000 1000 1000 1000.01 1000.01 1000.01 1000.01 1000.01 1000.01 1000 1000 1000 1000 1000 1000 1000 1000 1000 1000 1000 1000 1000 1000 1000 1000 1000 1000 1000 1000 1000 1000 1000 1000 1000 1000 1000 1000 1000 1000 1000 1000 1000 1000 1000 1000.01 1000.01 1000.01 1000.01 1000.01 1000.01 1000 1000 1000 1000 1000 1000 1000 1000 1000 1000 1000 1000 1000 1000 1000 1000 1000 1000 1000 1000 1000 1000 1000 1000 1000 1000 1000 1000 1000 1000 1000 1000 1000 1000 1000 1000.01 1000.01 1000.01 1000.01 1000.01 1000.01 1000 1000 1000 1000 1000 1000 1000 1000 1000 1000 1000 1000 1000 1000 1000 1000 1000 1000 1000 1000 1000 1000 1000 1000 1000 1000 1000 1000 1000 1000 1000 1000 1000 1000 1000 1000.01 1000.01 1000.01 1000.01 1000.01 1000.01 1000 1000 1000 1000 1000 1000 1000 1000 1000 1000 1000 1000 1000 1000 1000 1000 1000 1000 1000 1000 1000 1000 1000 1000 1000 1000 1000 1000 1000 1000 1000 1000 1000 1000 1000 1000.01 1000.01 1000.01 1000.01 1000.01 1000.01 1000 1000 1000 1000 1000 1000 1000 1000 1000 1000 1000 1000 1000 1000 1000 1000 1000 1000 1000 1000 1000 1000 1000 1000 1000 1000 1000 1000 1000 1000 1000 1000 1000 1000 1000 1000.01 1000.01 1000.01 1000.01 1000.01 1000.01 1000 1000 1000 1000 1000 1000 1000 1000 1000 1000 1000 1000 1000 1000 1000 1000 1000 1000 1000 1000 1000 1000 1000 1000 1000 1000 1000 1000 1000 1000 1000 1000 1000 1000 1000 1000.01 1000.01 1000.01 1000.01 1000.01 1000.01 1000 1000 1000 1000 1000 1000 1000 1000 1000 1000 1000 1000 1000 1000 1000 1000 1000 1000 1000 1000 1000 1000 1000 1000 1000 1000 1000 1000 1000 1000 1000 1000 1000 1000 1000 1000.01 1000.01 1000.01 1000.01 1000.01 1000.01 1000 1000 1000 1000 1000 1000 1000 1000 1000 1000 1000 1000 1000 1000 1000 1000 1000 1000 1000 1000 1000 1000 1000 1000 1000 1000 1000 1000 1000 1000 1000 1000 1000 1000 1000 1000.01 1000.01 1000.01 1000.01 1000.01 1000.01 1000 1000 1000 1000 1000 1000 1000 1000 1000 1000 1000 1000 1000 1000 1000 1000 1000 1000 1000 1000 1000 1000 1000 1000 1000 1000 1000 1000 1000 1000 1000 1000 1000 1000 1000 1000.01 1000.01 1000.01 1000.01 1000.01 1000.01 1000 1000 1000 1000 1000 1000 1000 1000 1000 1000 1000 1000 1000 1000 1000 1000 1000 1000 1000 1000 1000 1000 1000 1000 1000 1000 1000 1000 1000 1000 1000 1000 1000 1000 1000 1000.01 1000.01 1000.01 1000.01 1000.01 1000.01 1000 1000 1000 1000 1000 1000 1000 1000 1000 1000 1000 1000 1000 1000 1000 1000 1000 1000 1000 1000 1000 1000 1000 1000 1000 1000 1000 1000 1000 1000 1000 1000 1000 1000 1000 1000.01 1000.01 1000.01 1000.02 1000.01 1000.01 1000.01 1000 1000 1000 1000 1000 1000 1000 1000 1000 1000.01 1000 1000 1000 1000 1000 1000 1000 1000 1000 1000 1000 1000 1000 1000 1000 1000 1000 1000 1000 1000 1000 1000 1000 1000 1000.01 1000.02 1000.02 1000.03 1000.02 1000.03 1000.02 1000.01 1000.01 1000.01 1000.01 1000.01 1000.01 1000.01 1000.01 1000.01 1000.01 1000.01 1000.01 1000.01 1000.01 1000.01 1000.01 1000.01 1000.01 1000.01 1000.01 1000.01 1000.01 1000.01 1000.01 1000.01 1000.01 1000.01 1000.01 1000.01 1000.01 1000.01 1000.01 1000.01 1000.01 1000.03 1000.02 1000.02 1000.02 1000.01 1000.02 1000.01 1000.01 1000.01 1000.01 1000.01 1000.01 1000.01 1000.01 1000.01 1000.01 1000.01 1000.01 1000.01 1000.01 1000.01 1000.01 1000.01 1000.01 1000.01 1000.01 1000.01 1000.01 1000.01 1000.01 1000.01 1000.01 1000.01 1000.01 1000.01 1000.01 1000.01 1000.01 1000.01 1000.01 1000.02 1000.02 1000.01 1000.02 1000.02 1000.02 1000.03 1000.02 1000.01 1000.01 1000.01 1000.01 1000.01 1000.01 1000.01 1000.01 1000.01 1000.01 1000.01 1000.01 1000.01 1000.01 1000.01 1000.01 1000.01 1000.01 1000.01 1000.01 1000.01 1000.01 1000.01 1000.01 1000.01 1000.01 1000.01 1000.01 1000.01 1000.01 1000.01 1000.01 1000.01 1000.02 1000.02 1000.02 1000.02 1000 1000 1000 1000 1000 1000 1000 1000 1000 1000 1000 1000 1000 1000 1000 1000 1000 1000 1000 1000 1000 1000 1000 1000 1000 1000 1000 1000 1000 1000 1000 1000 1000 1000 1000 1000 1000 1000 1000 1000 1000 1000 1000 1000 1000 1000 1000 1000 1000 1000 1000 1000 1000 1000 1000 1000 1000 1000 1000 1000 1000 1000 1000 1000 1000 1000 1000 1000 1000 1000 1000 1000 1000 1000 1000 1000 1000 1000 1000 1000 1000 1000 1000 1000 1000 1000 1000 1000 1000 1000 1000 1000 1000 1000 1000 1000 1000 1000 1000 1000 1000 1000 1000 1000 1000 1000 1000 1000 1000 1000 1000 1000 1000 1000 1000 1000 1000 1000 1000 1000 1000 1000 1000 1000 1000 1000 1000 1000 1000 1000 1000 1000 1000 1000 1000 1000 1000 1000 1000 1000 1000 1000 1000 1000 1000 1000 1000 1000 1000 1000 1000 1000 1000 1000 1000 1000 1000 1000 1000 1000 1000 1000 1000 1000 1000 1000 1000 1000 1000 1000 1000 1000 1000 1000 1000 1000 1000 1000 1000 1000 1000 1000 1000 1000 1000 1000 1000 1000 1000 1000 1000 1000 1000 1000 1000 1000 1000 1000 1000 1000 1000 1000 1000 1000 1000 1000 1000 1000 1000 1000 1000 1000 1000 1000 1000 1000 1000 1000 1000 1000 1000 1000 1000 1000 1000 1000 1000 1000 1000 1000 1000 1000 1000 1000 1000 1000 1000 1000 1000 1000 1000 1000 1000 1000 1000 1000 1000 1000 1000 1000 1000 1000 1000 1000 1000 1000 1000 1000 1000 1000 1000 1000 1000 1000 1000 1000 1000 1000 1000 1000 1000 1000 1000 1000 1000 1000 1000 1000 1000 1000 1000 1000 1000 1000 1000 1000 1000 1000 1000 1000 1000 1000 1000 1000 1000 1000 1000 1000 1000 1000 1000 1000 1000 1000 1000 1000 1000 1000 1000 1000 1000 1000 1000 1000 1000 1000 1000 1000 1000 1000 1000 1000 1000 1000 1000 1000 1000 1000 
</DataArray>
<DataArray type="Float32" Name="Velocity" NumberOfComponents="3" format="ascii">
0.0042958707 0.0061391359 0
0.00066521595 0.0058588237 0
-7.5886463e-05 0.0057314765 0
7.3490643e-05 0.0049119396 0
4.6081022e-06 0.0041757757 0
2.1857238e-06 0.0029477165 0
6.1615611e-07 0.0041877357 0
1.1366199e-06 0.004187732 0
-2.4580186e-07 0.0029530674 0
3.9272064e-07 0.0029515158 0
-1.0714276e-06 0.0041877315 0
6.4918098e-08 0.0041877334 0
5.4205947e-07 0.0041877301 0
2.8326011e-10 0.0051092086 0
4.1495878e-07 0.0041877325 0
-3.2106382e-07 0.0041877334 0
-4.4391829e-08 0.0041877334 0
-1.1287113e-07 0.0041877334 0
1.4347748e-06 0.0041877264 0
-2.4667166e-09 0.00294791 0
1.2428561e-07 0.0041877325 0
5.7259649e-07 0.0041877353 0
-6.5098658e-07 0.0029433277 0
6.4961898e-07 0.0029433277 0
-6.6016048e-07 0.004187732 0
3.4785091e-07 0.0041877325 0
0 0.00294791 0
-3.4785091e-07 0.0041877325 0
6.6016048e-07 0.004187732 0
-6.4962126e-07 0.0029433277 0
6.4962126e-07 0.0029433277 0
-6.6015741e-07 0.004187732 0
6.6018339e-07 0.004187732 0
-6.4704659e-07 0.0029433277 0
6.6912213e-07 0.0029433272 0
-2.5431616e-06 0.0041877297 0
-8.3965182e-07 0.0041877562 0
-8.2896149e-05 0.0029706971 0
-0.00075880025 0.0041480386 0
-0.0005730071 0.0039400631 0
-0.0045444155 0.0044259583 0
0.0040365146 0.0011245101 0
0.00098751334 0.0012357563 0
0.00035653962 0.0010437884 0
9.7459852e-05 0.0011671612 0
2.5852836e-05 0.0011979904 0
-1.5532038e-08 0.00089736911 0
-1.3736543e-07 0.001199196 0
9.777343e-08 0.0011991953 0
-7.0332396e-07 0.0010952126 0
2.7667429e-07 0.0010951184 0
-2.1306136e-07 0.0011991943 0
-3.9322532e-07 0.0011991941 0
1.583665e-07 0.0011991931 0
8.8338812e-09 0.0014497928 0
-4.8840923e-07 0.0011991932 0
6.4702746e-08 0.0011991941 0
-2.5375019e-07 0.0011991941 0
4.5466351e-07 0.0011991955 0
1.9547682e-07 0.0011991945 0
-1.2381179e-09 0.00089737255 0
-4.5998999e-07 0.0011991941 0
4.4459071e-07 0.0011991941 0
-8.9368302e-07 0.0010951816 0
8.9328404e-07 0.0010951816 0
-4.5321335e-07 0.0011991941 0
4.5321332e-07 0.0011991941 0
6.1845636e-15 0.00089737255 0
-4.5321332e-07 0.0011991941 0
4.5321335e-07 0.0011991941 0
-8.9328404e-07 0.0010951816 0
8.9328404e-07 0.0010951816 0
-4.5320795e-07 0.0011991941 0
4.5326692e-07 0.0011991941 0
-8.922101e-07 0.0010951816 0
9.0336783e-07 0.0010951814 0
-4.1933592e-07 0.0011991953 0
-1.5243418e-06 0.0011993508 0
-0.00011882401 0.0010811168 0
-0.0005272011 0.00076904887 0
-0.00085818622 0.00085570168 0
-0.0038978788 0.00053379481 0
0.003830432 0.00034430777 0
0.00093160628 0.00038422243 0
0.00057694921 0.00019854591 0
0.00012849366 0.000126532 0
1.4095166e-05 0.00013548104 0
3.9257607e-06 7.5064039e-05 0
3.4877103e-06 0.0001349993 0
3.3029974e-06 0.00013489285 0
1.2179728e-06 7.8353092e-05 0
1.20327e-06 7.8391648e-05 0
1.0709524e-06 0.0001348651 0
5.4762029e-07 0.00013481232 0
-9.6499389e-07 0.00013479672 0
9.8875631e-08 0.00014613516 0
-5.4896299e-07 0.00013480739 0
9.3037173e-08 0.00013481232 0
-2.2009796e-07 0.00013481232 0
4.204484e-07 0.00013481235 0
1.6392228e-07 0.00013481466 0
3.3372476e-07 7.5469143e-05 0
8.6975973e-08 0.00013481204 0
-8.0517941e-07 0.0001348356 0
-9.2414763e-07 7.8367273e-05 0
2.1143044e-06 7.8390149e-05 0
8.0595214e-08 0.00013481265 0
-2.6758673e-07 0.00013481292 0
-1.9718671e-15 7.5468015e-05 0
2.6758673e-07 0.00013481292 0
-8.0595214e-08 0.00013481265 0
-2.1143044e-06 7.8390149e-05 0
2.1143044e-06 7.8390149e-05 0
-9.1842122e-07 0.00013481265 0
-5.6813059e-07 0.00013484582 0
-4.8855977e-06 7.8356992e-05 0
-2.3865787e-06 7.8245015e-05 0
-4.1570656e-06 0.00013495823 0
-6.4784758e-06 0.00013509793 0
-0.00019211615 7.0799884e-05 0
-0.00042506924 0.00037833021 0
-0.00072357774 0.00051591522 0
-0.004020799 0.00055216876 0
0.0042644227 0.00030553807 0
0.00098271773 0.00023785842 0
0.00039301752 9.0032125e-05 0
9.1601083e-05 9.0867645e-05 0
9.0981066e-06 4.3652781e-05 0
4.6906632e-07 3.6548427e-06 0
5.4317871e-07 4.4592693e-05 0
3.113052e-07 4.4590488e-05 0
7.5930977e-08 3.6650913e-06 0
-5.0419061e-07 3.6645454e-06 0
-1.7713623e-07 4.4591059e-05 0
-9.8233677e-08 4.4590288e-05 0
6.3770091e-07 4.4590095e-05 0
5.1733456e-10 9.818191e-05 0
-7.2505264e-07 4.4590131e-05 0
-3.6254733e-07 4.4590299e-05 0
-1.0822836e-07 4.4590288e-05 0
-2.1076085e-08 4.4590288e-05 0
1.3188031e-07 4.4593045e-05 0
5.4551521e-07 3.656442e-06 0
-1.4429418e-07 4.4591427e-05 0
4.4766253e-07 4.4590848e-05 0
3.6835124e-07 3.6647343e-06 0
-3.6840672e-07 3.6647559e-06 0
-4.4895651e-07 4.4590786e-05 0
1.413525e-07 4.4591423e-05 0
3.71081e-16 3.6581316e-06 0
-1.413525e-07 4.4591423e-05 0
4.4895651e-07 4.4590786e-05 0
3.6840669e-07 3.6647559e-06 0
-3.6840669e-07 3.6647559e-06 0
2.7505772e-08 4.4590786e-05 0
-2.7498745e-08 4.4590794e-05 0
3.682176e-07 3.66475e-06 0
-8.8961724e-07 3.6634294e-06 0
-1.6914347e-06 4.4592103e-05 0
-1.4912036e-06 4.4602089e-05 0
-8.2024424e-05 3.246266e-05 0
-0.00011145366 0.00020948685 0
-0.0011675927 0.00012762009 0
-0.0042107562 0.00021531805 0
0.0042165001 0.00025109173 0
0.0011353876 0.00021492472 0
0.00015709549 0.00019494709 0
9.2947361e-05 1.8516947e-05 0
2.6847381e-06 1.4730272e-06 0
1.6923108e-09 9.1810302e-09 0
-4.7814264e-09 1.5429723e-06 0
4.7658753e-09 1.5429712e-06 0
-3.201711e-14 9.1896055e-09 0
5.2011431e-14 9.1891659e-09 0
-4.7537236e-09 1.5429716e-06 0
4.7528044e-09 1.5429709e-06 0
-1.4562536e-07 1.5429071e-06 0
0 1.6750646e-05 0
1.4561887e-07 1.5429071e-06 0
-4.7477475e-09 1.5429709e-06 0
4.764261e-09 1.5429709e-06 0
-4.7842876e-09 1.5429709e-06 0
4.7638768e-09 1.5429721e-06 0
-3.0769232e-15 9.1818304e-09 0
-4.7734692e-09 1.5429719e-06 0
4.7677822e-09 1.5429713e-06 0
-5.1343522e-14 9.1892396e-09 0
5.1343729e-14 9.1892494e-09 0
-4.7677822e-09 1.5429713e-06 0
4.7734692e-09 1.5429719e-06 0
0 9.1821049e-09 0
-4.7734692e-09 1.5429719e-06 0
4.7677822e-09 1.5429713e-06 0
-5.1343729e-14 9.1892494e-09 0
5.1343729e-14 9.1892494e-09 0
-4.7684217e-09 1.5429713e-06 0
4.7684217e-09 1.5429713e-06 0
-5.1343712e-14 9.1892485e-09 0
5.9592319e-14 9.1884438e-09 0
-5.7925424e-09 1.5429721e-06 0
-1.4441428e-06 1.545537e-06 0
-4.3450422e-05 2.2933416e-06 0
-0.00013530508 1.6496238e-05 0
-0.0011981585 3.7847374e-05 0
-0.0041755792 4.8530757e-05 0
0.0029626354 8.863437e-06 0
0.0011023859 1.3609804e-06 0
7.8331388e-05 1.2791411e-05 0
3.6539172e-06 1.2221698e-06 0
9.1848005e-09 1.0710531e-09 0
0 0 0
-4.7746509e-09 1.1707679e-09 0
4.7746509e-09 1.1707674e-09 0
0 0 0
0 0 0
-4.7746509e-09 1.1707676e-09 0
4.7746509e-09 1.1707673e-09 0
-4.77465e-09 1.1707418e-09 0
0 2.5230202e-07 0
4.77465e-09 1.1707418e-09 0
-4.7746509e-09 1.1707673e-09 0
4.7746509e-09 1.1707673e-09 0
-4.7746509e-09 1.1707673e-09 0
4.7746509e-09 1.1707676e-09 0
0 0 0
-4.7746562e-09 1.1707676e-09 0
4.7746562e-09 1.1707674e-09 0
0 0 0
0 0 0
-4.7746562e-09 1.1707674e-09 0
4.7746562e-09 1.1707676e-09 0
0 0 0
-4.7746562e-09 1.1707676e-09 0
4.7746562e-09 1.1707674e-09 0
0 0 0
0 0 0
-4.7746562e-09 1.1707674e-09 0
4.7746562e-09 1.1707674e-09 0
0 0 0
0 0 0
-4.7746562e-09 1.1707677e-09 0
4.6854087e-10 1.170892e-09 0
-3.6648007e-06 5.8071305e-07 0
-7.7988625e-05 4.9642631e-06 0
-0.0010951972 4.1402188e-07 0
-0.002951219 3.2617127e-06 0
0.0041877353 6.1234635e-07 0
0.001199196 -1.3911239e-07 0
0.00013501801 3.639761e-06 0
4.4593671e-05 5.3047825e-07 0
1.5429725e-06 -4.7863109e-09 0
1.1707681e-09 -4.7746509e-09 0
-4.7746509e-09 -4.7746509e-09 0
4.7746509e-09 -4.7746509e-09 0
0 -4.7746509e-09 0
0 -4.7746509e-09 0
-4.7746509e-09 -4.7746509e-09 0
4.7746509e-09 -4.7746509e-09 0
-4.7746509e-09 -4.7746509e-09 0
0 -4.7119912e-09 0
4.7746509e-09 -4.7746509e-09 0
-4.7746509e-09 -4.7746509e-09 0
4.7746509e-09 -4.7746509e-09 0
-4.7746509e-09 -4.7746509e-09 0
4.7746509e-09 -4.7746509e-09 0
0 -4.7746509e-09 0
-4.7746562e-09 -4.7746509e-09 0
4.7746562e-09 -4.7746509e-09 0
0 -4.7746509e-09 0
0 -4.7746509e-09 0
-4.7746562e-09 -4.7746509e-09 0
4.7746562e-09 -4.7746509e-09 0
0 -4.7746509e-09 0
-4.7746562e-09 -4.7746509e-09 0
4.7746562e-09 -4.7746509e-09 0
0 -4.7746509e-09 0
0 -4.7746509e-09 0
-4.7746562e-09 -4.7746509e-09 0
4.7746562e-09 -4.7746509e-09 0
0 -4.7746509e-09 0
0 -4.7746509e-09 0
-5.9208696e-09 -4.7746509e-09 0
-1.5334222e-06 -4.7811115e-09 0
-4.4597196e-05 4.3289984e-07 0
-0.00013501458 3.6177125e-06 0
-0.0011991683 -1.3814258e-07 0
-0.0041877292 6.1776075e-07 0
0.004187732 1.1323357e-06 0
0.0011991954 9.6109567e-08 0
0.00013491399 3.4425809e-06 0
4.4591343e-05 4.9559014e-07 0
1.5429712e-06 4.7622111e-09 0
1.1707674e-09 4.7746509e-09 0
-4.7746509e-09 4.7746509e-09 0
4.7746509e-09 4.7746509e-09 0
0 4.7746509e-09 0
0 4.7746509e-09 0
-4.7746509e-09 4.7746509e-09 0
4.7746509e-09 4.7746509e-09 0
-4.7746509e-09 4.7746509e-09 0
0 4.7746509e-09 0
4.7746509e-09 4.7746509e-09 0
-4.7746509e-09 4.7746509e-09 0
4.7746509e-09 4.7746509e-09 0
-4.7746509e-09 4.7746509e-09 0
4.7746509e-09 4.7746509e-09 0
0 4.7746509e-09 0
-4.7746562e-09 4.7746509e-09 0
4.7746562e-09 4.7746509e-09 0
0 4.7746509e-09 0
0 4.7746509e-09 0
-4.7746562e-09 4.7746509e-09 0
4.7746562e-09 4.7746509e-09 0
0 4.7746509e-09 0
-4.7746562e-09 4.7746509e-09 0
4.7746562e-09 4.7746509e-09 0
0 4.7746509e-09 0
0 4.7746509e-09 0
-4.7746562e-09 4.7746509e-09 0
4.7746562e-09 4.7746509e-09 0
0 4.7746509e-09 0
0 4.7746509e-09 0
-5.9208696e-09 4.7746509e-09 0
-1.5334213e-06 4.7669078e-09 0
-4.4595556e-05 2.2922795e-07 0
-0.00013490464 3.6106535e-06 0
-0.0011991679 9.7074469e-08 0
-0.004187726 1.1398248e-06 0
0.0029530674 -2.4757952e-07 0
0.0010952125 -7.0416547e-07 0
7.8331956e-05 1.9734421e-06 0
3.6642418e-06 3.3201647e-07 0
9.1895345e-09 -3.2161445e-14 0
0 0 0
-4.7746509e-09 0 0
4.7746509e-09 0 0
0 0 0
0 0 0
-4.7746509e-09 0 0
4.7746509e-09 0 0
-4.7746509e-09 0 0
0 0 0
4.7746509e-09 0 0
-4.7746509e-09 0 0
4.7746509e-09 0 0
-4.7746509e-09 0 0
4.7746509e-09 0 0
0 0 0
-4.7746562e-09 0 0
4.7746562e-09 0 0
0 0 0
0 0 0
-4.7746562e-09 0 0
4.7746562e-09 0 0
0 0 0
-4.7746562e-09 0 0
4.7746562e-09 0 0
0 0 0
0 0 0
-4.7746562e-09 0 0
4.7746562e-09 0 0
0 0 0
0 0 0
-4.7746562e-09 0 0
4.6579574e-10 -3.2193052e-14 0
-3.6696401e-06 7.5885261e-08 0
-7.8342171e-05 1.6826956e-06 0
-0.0010951975 -7.0439427e-07 0
-0.002953114 -2.4605811e-07 0
0.0029515158 3.924728e-07 0
0.0010951184 2.7657475e-07 0
7.8391648e-05 1.6286335e-06 0