<?xml version="1.0" ?>

<VTKFile type="UnstructuredGrid" version="0.1" byte_order="BigEndian">

<UnstructuredGrid>

<Piece NumberOfPoints= " 2009 " NumberOfCells=" 2009 ">

<PointData Scalars="Pressure" Vectors="Velocity">

<DataArray type="Float32" Name="Pressure" format="ascii">

28.8633 25.8587 26.3953 10.0854 9.87085 4.61347 9.87085 9.87085 4.61347 4.61347 9.87085 9.87085 9.87085 10.9438 9.87085 9.87085 9.87085 9.87085 9.87085 4.61347 9.87085 9.87085 4.61347 4.61347 9.87085 9.87085 4.61347 9.87085 9.87085 4.61347 4.61347 9.87085 9.87085 4.61347 4.61347 9.87085 9.87085 4.61347 24.893 30.0437 33.7996 22.3176 20.8154 11.5876 6.11556 8.47602 6.22285 8.58331 8.58331 6.22285 6.22285 8.58331 8.58331 8.58331 6.43744 8.58331 8.58331 8.58331 8.58331 8.58331 6.22285 8.58331 8.58331 6.22285 6.22285 8.58331 8.58331 6.22285 8.58331 8.58331 6.22285 6.22285 8.58331 8.58331 6.22285 6.22285 8.58331 8.58331 5.90098 21.9957 28.0049 29.6145 30.3657 28.3268 19.957 7.72496 5.04264 0 5.04264 5.04264 0 0 5.04264 5.04264 5.04264 10.8365 5.04264 5.04264 5.04264 5.04264 5.04264 0 5.04264 5.04264 0 0 5.04264 5.04264 0 5.04264 5.04264 0 0 5.04264 5.04264 0 0 5.04264 5.04264 0 18.4547 22.7469 25.0003 18.7766 16.8452 10.7292 0 0 0 0 0 0 0 0 0 0 0.321865 0 0 0 0 0 0 0 0 0 0 0 0 0 0 0 0 0 0 0 0 0 0 0 0 5.14993 9.01249 9.97815 9.87085 8.58331 5.04264 0 0 0 0 0 0 0 0 0 0 0 0 0 0 0 0 0 0 0 0 0 0 0 0 0 0 0 0 0 0 0 0 0 0 0 5.04264 8.47602 9.87085 4.61347 6.22285 0 0 0 0 0 0 0 0 0 0 0 0 0 0 0 0 0 0 0 0 0 0 0 0 0 0 0 0 0 0 0 0 0 0 0 0 0 6.22285 4.61347 9.87085 8.58331 5.04264 0 0 0 0 0 0 0 0 0 0 0 0 0 0 0 0 0 0 0 0 0 0 0 0 0 0 0 0 0 0 0 0 0 0 0 5.04264 8.58331 9.87085 9.87085 8.58331 5.04264 0 0 0 0 0 0 0 0 0 0 0 0 0 0 0 0 0 0 0 0 0 0 0 0 0 0 0 0 0 0 0 0 0 0 0 5.04264 8.58331 9.87085 4.61347 6.22285 0 0 0 0 0 0 0 0 0 0 0 0 0 0 0 0 0 0 0 0 0 0 0 0 0 0 0 0 0 0 0 0 0 0 0 0 0 6.22285 4.61347 4.61347 6.22285 0 0 0 0 0 0 0 0 0 0 0 0 0 0 0 0 0 0 0 0 0 0 0 0 0 0 0 0 0 0 0 0 0 0 0 0 0 6.22285 4.61347 9.87085 8.58331 5.04264 0 0 0 0 0 0 0 0 0 0 0 0 0 0 0 0 0 0 0 0 0 0 0 0 0 0 0 0 0 0 0 0 0 0 0 5.04264 8.58331 9.87085 9.87085 8.58331 5.04264 0 0 0 0 0 0 0 0 0 0 0 0 0 0 0 0 0 0 0 0 0 0 0 0 0 0 0 0 0 0 0 0 0 0 0 5.04264 8.58331 9.87085 9.87085 8.58331 5.04264 0 0 0 0 0 0 0 0 0 0 0 0 0 0 0 0 0 0 0 0 0 0 0 0 0 0 0 0 0 0 0 0 0 0 0 5.04264 8.58331 9.87085 10.9438 6.43744 10.8365 0.321865 0 0 0 0 0 0 0 0 0 0 0 0 0 0 0 0 0 0 0 0 0 0 0 0 0 0 0 0 0 0 0 0 0 0.321865 10.8365 6.43744 10.9438 9.87085 8.58331 5.04264 0 0 0 0 0 0 0 0 0 0 0 0 0 0 0 0 0 0 0 0 0 0 0 0 0 0 0 0 0 0 0 0 0 0 0 5.04264 8.58331 9.87085 9.87085 8.58331 5.04264 0 0 0 0 0 0 0 0 0 0 0 0 0 0 0 0 0 0 0 0 0 0 0 0 0 0 0 0 0 0 0 0 0 0 0 5.04264 8.58331 9.87085 9.87085 8.58331 5.04264 0 0 0 0 0 0 0 0 0 0 0 0 0 0 0 0 0 0 0 0 0 0 0 0 0 0 0 0 0 0 0 0 0 0 0 5.04264 8.58331 9.87085 9.87085 8.58331 5.04264 0 0 0 0 0 0 0 0 0 0 0 0 0 0 0 0 0 0 0 0 0 0 0 0 0 0 0 0 0 0 0 0 0 0 0 5.04264 8.58331 9.87085 9.87085 8.58331 5.04264 0 0 0 0 0 0 0 0 0 0 0 0 0 0 0 0 0 0 0 0 0 0 0 0 0 0 0 0 0 0 0 0 0 0 0 5.04264 8.58331 9.87085 4.61347 6.22285 0 0 0 0 0 0 0 0 0 0 0 0 0 0 0 0 0 0 0 0 0 0 0 0 0 0 0 0 0 0 0 0 0 0 0 0 0 6.22285 4.61347 9.87085 8.58331 5.04264 0 0 0 0 0 0 0 0 0 0 0 0 0 0 0 0 0 0 0 0 0 0 0 0 0 0 0 0 0 0 0 0 0 0 0 5.04264 8.58331 9.87085 9.87085 8.58331 5.04264 0 0 0 0 0 0 0 0 0 0 0 0 0 0 0 0 0 0 0 0 0 0 0 0 0 0 0 0 0 0 0 0 0 0 0 5.04264 8.58331 9.87085 4.61347 6.22285 0 0 0 0 0 0 0 0 0 0 0 0 0 0 0 0 0 0 0 0 0 0 0 0 0 0 0 0 0 0 0 0 0 0 0 0 0 6.22285 4.61347 4.61347 6.22285 0 0 0 0 0 0 0 0 0 0 0 0 0 0 0 0 0 0 0 0 0 0 0 0 0 0 0 0 0 0 0 0 0 0 0 0 0 6.22285 4.61347 9.87085 8.58331 5.04264 0 0 0 0 0 0 0 0 0 0 0 0 0 0 0 0 0 0 0 0 0 0 0 0 0 0 0 0 0 0 0 0 0 0 0 5.04264 8.58331 9.87085 9.87085 8.58331 5.04264 0 0 0 0 0 0 0 0 0 0 0 0 0 0 0 0 0 0 0 0 0 0 0 0 0 0 0 0 0 0 0 0 0 0 0 5.04264 8.58331 9.87085 4.61347 6.22285 0 0 0 0 0 0 0 0 0 0 0 0 0 0 0 0 0 0 0 0 0 0 0 0 0 0 0 0 0 0 0 0 0 0 0 0 0 6.22285 4.61347 9.87085 8.58331 5.04264 0 0 0 0 0 0 0 0 0 0 0 0 0 0 0 0 0 0 0 0 0 0 0 0 0 0 0 0 0 0 0 0 0 0 0 5.04264 8.58331 9.87085 9.87085 8.58331 5.04264 0 0 0 0 0 0 0 0 0 0 0 0 0 0 0 0 0 0 0 0 0 0 0 0 0 0 0 0 0 0 0 0 0 0 0 5.04264 8.58331 9.87085 4.61347 6.22285 0 0 0 0 0 0 0 0 0 0 0 0 0 0 0 0 0 0 0 0 0 0 0 0 0 0 0 0 0 0 0 0 0 0 0 0 0 6.22285 4.61347 4.61347 6.22285 0 0 0 0 0 0 0 0 0 0 0 0 0 0 0 0 0 0 0 0 0 0 0 0 0 0 0 0 0 0 0 0 0 0 0 0 0 6.22285 4.61347 9.87085 8.58331 5.04264 0 0 0 0 0 0 0 0 0 0 0 0 0 0 0 0 0 0 0 0 0 0 0 0 0 0 0 0 0 0 0 0 0 0 0 5.04264 8.58331 9.87085 9.87085 8.58331 5.04264 0 0 0 0 0 0 0 0 0 0 0 0 0 0 0 0 0 0 0 0 0 0 0 0 0 0 0 0 0 0 0 0 0 0 0 5.04264 8.58331 9.87085 4.61347 6.22285 0 0 0 0 0 0 0 0 0 0 0 0 0 0 0 0 0 0 0 0 0 0 0 0 0 0 0 0 0 0 0 0 0 0 0 0 0 6.22285 4.61347 4.61347 6.22285 0 0 0 0 0 0 0 0 0 0 0 0 0 0 0 0 0 0 0 0 0 0 0 0 0 0 0 0 0 0 0 0 0 0 0 0 0 6.22285 4.61347 9.87085 8.58331 5.04264 0 0 0 0 0 0 0 0 0 0 0 0 0 0 0 0 0 0 0 0 0 0 0 0 0 0 0 0 0 0 0 0 0 0 0 5.04264 8.58331 9.87085 9.87085 8.58331 5.04264 0 0 0 0 0 0 0 0 0 0 0 0 0 0 0 0 0 0 0 0 0 0 0 0 0 0 0 0 0 0 0 0 0 0 0 5.04264 8.58331 9.87085 4.61347 5.90098 0 0 0 0 0 0 0 0 0 0 0 0.321865 0 0 0 0 0 0 0 0 0 0 0 0 0 0 0 0 0 0 0 0 0 0 0 0 0 5.90098 4.61347 24.893 21.9957 18.4547 5.14993 5.04264 0 5.04264 5.04264 0 0 5.04264 5.04264 5.04264 10.8365 5.04264 5.04264 5.04264 5.04264 5.04264 0 5.04264 5.04264 0 0 5.04264 5.04264 0 5.04264 5.04264 0 0 5.04264 5.04264 0 0 5.04264 5.04264 0 18.8839 22.3176 25.1076 30.0437 28.0049 22.7469 9.01249 8.47602 6.22285 8.58331 8.58331 6.22285 6.22285 8.58331 8.58331 8.58331 6.43744 8.58331 8.58331 8.58331 8.58331 8.58331 6.22285 8.58331 8.58331 6.22285 6.22285 8.58331 8.58331 6.22285 8.58331 8.58331 6.22285 6.22285 8.58331 8.58331 6.22285 6.22285 8.58331 8.58331 5.90098 22.3176 27.7903 29.8291 33.7996 29.6145 25.0003 9.97815 9.87085 4.61347 9.87085 9.87085 4.61347 4.61347 9.87085 9.87085 9.87085 10.9438 9.87085 9.87085 9.87085 9.87085 9.87085 4.61347 9.87085 9.87085 4.61347 4.61347 9.87085 9.87085 4.61347 9.87085 9.87085 4.61347 4.61347 9.87085 9.87085 4.61347 4.61347 9.87085 9.87085 4.61347 25.1076 29.8291 34.0143 0.1 0.1 0.1 0.1 0.1 0.1 0.1 0.1 0.1 0.1 0.1 0.1 0.1 0.1 0.1 0.1 0.1 0.1 0.1 0.1 0.1 0.1 0.1 0.1 0.1 0.1 0.1 0.1 0.1 0.1 0.1 0.1 0.1 0.1 0.1 0.1 0.1 0.1 0.1 0.1 0.1 0.1 0.1 0.1 0.1 0.1 0.1 0.1 0.1 0.1 0.1 0.1 0.1 0.1 0.1 0.1 0.1 0.1 0.1 0.1 0.1 0.1 0.1 0.1 0.1 0.1 0.1 0.1 0.1 0.1 0.1 0.1 0.1 0.1 0.1 0.1 0.1 0.1 0.1 0.1 0.1 0.1 0.1 0.1 0.1 0.1 0.1 0.1 0.1 0.1 0.1 0.1 0.1 0.1 0.1 0.1 0.1 0.1 0.1 0.1 0.1 0.1 0.1 0.1 0.1 0.1 0.1 0.1 0.1 0.1 0.1 0.1 0.1 0.1 0.1 0.1 0.1 0.1 0.1 0.1 0.1 0.1 0.1 0.1 0.1 0.1 0.1 0.1 0.1 0.1 0.1 0.1 0.1 0.1 0.1 0.1 0.1 0.1 0.1 0.1 0.1 0.1 0.1 0.1 0.1 0.1 0.1 0.1 0.1 0.1 0.1 0.1 0.1 0.1 0.1 0.1 0.1 0.1 0.1 0.1 0.1 0.1 0.1 0.1 0.1 0.1 0.1 0.1 0.1 0.1 0.1 0.1 0.1 0.1 0.1 0.1 0.1 0.1 0.1 0.1 0.1 0.1 0.1 0.1 0.1 0.1 0.1 0.1 0.1 0.1 0.1 0.1 0.1 0.1 0.1 0.1 0.1 0.1 0.1 0.1 0.1 0.1 0.1 0.1 0.1 0.1 0.1 0.1 0.1 0.1 0.1 0.1 0.1 0.1 0.1 0.1 0.1 0.1 0.1 0.1 0.1 0.1 0.1 0.1 0.1 0.1 0.1 0.1 0.1 0.1 0.1 0.1 0.1 0.1 0.1 0.1 0.1 0.1 0.1 0.1 0.1 0.1 0.1 0.1 0.1 0.1 0.1 0.1 0.1 0.1 0.1 0.1 0.1 0.1 0.1 0.1 0.1 0.1 0.1 0.1 0.1 0.1 0.1 0.1 0.1 0.1 0.1 0.1 0.1 0.1 0.1 0.1 0.1 0.1 0.1 0.1 0.1 0.1 0.1 0.1 0.1 0.1 0.1 0.1 0.1 0.1 0.1 0.1 0.1 0.1 0.1 0.1 0.1 0.1 0.1 0.1 0.1 0.1 0.1 0.1 0.1 0.1 0.1 0.1 0.1 0.1 0.1 0.1 0.1 0.1 0.1 0.1 0.1 0.1 0.1 0.1 0.1 0.1 0.1 0.1 0.1 0.1 0.1 0.1 0.1 0.1 0.1 0.1 
</DataArray>

<DataArray type="Float32" Name="Density" format="ascii">
1000.03 1000.03 1000.03 1000.01 1000.01 1000.01 1000.01 1000.01 1000.01 1000.01 1000.01 1000.01 1000.01 1000.01 1000.01 1000.01 1000.01 1000.01 1000.01 1000.01 1000.01 1000.01 1000.01 1000.01 1000.01 1000.01 1000.01 1000.01 1000.01 1000.01 1000.01 1000.01 1000.01 1000.01 1000.01 1000.01 1000.01 1000.01 1000.03 1000.03 1000.04 1000.02 1000.02 1000.01 1000.01 1000.01 1000.01 1000.01 1000.01 1000.01 1000.01 1000.01 1000.01 1000.01 1000.01 1000.01 1000.01 1000.01 1000.01 1000.01 1000.01 1000.01 1000.01 1000.01 1000.01 1000.01 1000.01 1000.01 1000.01 1000.01 1000.01 1000.01 1000.01 1000.01 1000.01 1000.01 1000.01 1000.01 1000.01 1000.02 1000.03 1000.03 1000.03 1000.03 1000.02 1000.01 1000.01 1000 1000.01 1000.01 1000 1000 1000.01 1000.01 1000.01 1000.01 1000.01 1000.01 1000.01 1000.01 1000.01 1000 1000.01 1000.01 1000 1000 1000.01 1000.01 1000 1000.01 1000.01 1000 1000 1000.01 1000.01 1000 1000 1000.01 1000.01 1000 1000.02 1000.03 1000.03 1000.02 1000.02 1000.01 1000 1000 1000 1000 1000 1000 1000 1000 1000 1000 1000 1000 1000 1000 1000 1000 1000 1000 1000 1000 1000 1000 1000 1000 1000 1000 1000 1000 1000 1000 1000 1000 1000 1000 1000 1000.01 1000.01 1000.01 1000.01 1000.01 1000.01 1000 1000 1000 1000 1000 1000 1000 1000 1000 1000 1000 1000 1000 1000 1000 1000 1000 1000 1000 1000 1000 1000 1000 1000 1000 1000 1000 1000 1000 1000 1000 1000 1000 1000 1000 1000.01 1000.01 1000.01 1000.01 1000.01 1000 1000 1000 1000 1000 1000 1000 1000 1000 1000 1000 1000 1000 1000 1000 1000 1000 1000 1000 1000 1000 1000 1000 1000 1000 1000 1000 1000 1000 1000 1000 1000 1000 1000 1000 1000 1000 1000.01 1000.01 1000.01 1000.01 1000.01 1000 1000 1000 1000 1000 1000 1000 1000 1000 1000 1000 1000 1000 1000 1000 1000 1000 1000 1000 1000 1000 1000 1000 1000 1000 1000 1000 1000 1000 1000 1000 1000 1000 1000 1000 1000.01 1000.01 1000.01 1000.01 1000.01 1000.01 1000 1000 1000 1000 1000 1000 1000 1000 1000 1000 1000 1000 1000 1000 1000 1000 1000 1000 1000 1000 1000 1000 1000 1000 1000 1000 1000 1000 1000 1000 1000 1000 1000 1000 1000 1000.01 1000.01 1000.01 1000.01 1000.01 1000 1000 1000 1000 1000 1000 1000 1000 1000 1000 1000 1000 1000 1000 1000 1000 1000 1000 1000 1000 1000 1000 1000 1000 1000 1000 1000 1000 1000 1000 1000 1000 1000 1000 1000 1000 1000 1000.01 1000.01 1000.01 1000.01 1000 1000 1000 1000 1000 1000 1000 1000 1000 1000 1000 1000 1000 1000 1000 1000 1000 1000 1000 1000 1000 1000 1000 1000 1000 1000 1000 1000 1000 1000 1000 1000 1000 1000 1000 1000 1000 1000.01 1000.01 1000.01 1000.01 1000.01 1000 1000 1000 1000 1000 1000 1000 1000 1000 1000 1000 1000 1000 1000 1000 1000 1000 1000 1000 1000 1000 1000 1000 1000 1000 1000 1000 1000 1000 1000 1000 1000 1000 1000 1000 1000.01 1000.01 1000.01 1000.01 1000.01 1000.01 1000 1000 1000 1000 1000 1000 1000 1000 1000 1000 1000 1000 1000 1000 1000 1000 1000 1000 1000 1000 1000 1000 1000 1000 1000 1000 1000 1000 1000 1000 1000 1000 1000 1000 1000 1000.01 1000.01 1000.01 1000.01 1000.01 1000.01 1000 1000 1000 1000 1000 1000 1000 1000 1000 1000 1000 1000 1000 1000 1000 1000 1000 1000 1000 1000 1000 1000 1000 1000 1000 1000 1000 1000 1000 1000 1000 1000 1000 1000 1000 1000.01 1000.01 1000.01 1000.01 1000.01 1000.01 1000 1000 1000 1000 1000 1000 1000 1000 1000 1000 1000 1000 1000 1000 1000 1000 1000 1000 1000 1000 1000 1000 1000 1000 1000 1000 1000 1000 1000 1000 1000 1000 1000 1000 1000 1000.01 1000.01 1000.01 1000.01 1000.01 1000.01 1000 1000 1000 1000 1000 1000 1000 1000 1000 1000 1000 1000 1000 1000 1000 1000 1000 1000 1000 1000 1000 1000 1000 1000 1000 1000 1000 1000 1000 1000 1000 1000 1000 1000 1000 1000.01 1000.01 1000.01 1000.01 1000.01 1000.01 1000 1000 1000 1000 1000 1000 1000 1000 1000 1000 1000 1000 1000 1000 1000 1000 1000 1000 1000 1000 1000 1000 1000 1000 1000 1000 1000 1000 1000 1000 1000 1000 1000 1000 1000 1000.01 1000.01 1000.01 1000.01 1000.01 1000.01 1000 1000 1000 1000 1000 1000 1000 1000 1000 1000 1000 1000 1000 1000 1000 1000 1000 1000 1000 1000 1000 1000 1000 1000 1000 1000 1000 1000 1000 1000 1000 1000 1000 1000 1000 1000.01 1000.01 1000.01 1000.01 1000.01 1000.01 1000 1000 1000 1000 1000 1000 1000 1000 1000 1000 1000 1000 1000 1000 1000 1000 1000 1000 1000 1000 1000 1000 1000 1000 1000 1000 1000 1000 1000 1000 1000 1000 1000 1000 1000 1000.01 1000.01 1000.01 1000.01 1000.01 1000.01 1000 1000 1000 1000 1000 1000 1000 1000 1000 1000 1000 1000 1000 1000 1000 1000 1000 1000 1000 1000 1000 1000 1000 1000 1000 1000 1000 1000 1000 1000 1000 1000 1000 1000 1000 1000.01 1000.01 1000.01 1000.01 1000.01 1000 1000 1000 1000 1000 1000 1000 1000 1000 1000 1000 1000 1000 1000 1000 1000 1000 1000 1000 1000 1000 1000 1000 1000 1000 1000 1000 1000 1000 1000 1000 1000 1000 1000 1000 1000 1000 1000.01 1000.01 1000.01 1000.01 1000.01 1000 1000 1000 1000 1000 1000 1000 1000 1000 1000 1000 1000 1000 1000 1000 1000 1000 1000 1000 1000 1000 1000 1000 1000 1000 1000 1000 1000 1000 1000 1000 1000 1000 1000 1000 1000.01 1000.01 1000.01 1000.01 1000.01 1000.01 1000 1000 1000 1000 1000 1000 1000 1000 1000 1000 1000 1000 1000 1000 1000 1000 1000 1000 1000 1000 1000 1000 1000 1000 1000 1000 1000 1000 1000 1000 1000 1000 1000 1000 1000 1000.01 1000.01 1000.01 1000.01 1000.01 1000 1000 1000 1000 1000 1000 1000 1000 1000 1000 1000 1000 1000 1000 1000 1000 1000 1000 1000 1000 1000 1000 1000 1000 1000 1000 1000 1000 1000 1000 1000 1000 1000 1000 1000 1000 1000 1000.01 1000.01 1000.01 1000.01 1000 1000 1000 1000 1000 1000 1000 1000 1000 1000 1000 1000 1000 1000 1000 1000 1000 1000 1000 1000 1000 1000 1000 1000 1000 1000 1000 1000 1000 1000 1000 1000 1000 1000 1000 1000 1000 1000.01 1000.01 1000.01 1000.01 1000.01 1000 1000 1000 1000 1000 1000 1000 1000 1000 1000 1000 1000 1000 1000 1000 1000 1000 1000 1000 1000 1000 1000 1000 1000 1000 1000 1000 1000 1000 1000 1000 1000 1000 1000 1000 1000.01 1000.01 1000.01 1000.01 1000.01 1000.01 1000 1000 1000 1000 1000 1000 1000 1000 1000 1000 1000 1000 1000 1000 1000 1000 1000 1000 1000 1000 1000 1000 1000 1000 1000 1000 1000 1000 1000 1000 1000 1000 1000 1000 1000 1000.01 1000.01 1000.01 1000.01 1000.01 1000 1000 1000 1000 1000 1000 1000 1000 1000 1000 1000 1000 1000 1000 1000 1000 1000 1000 1000 1000 1000 1000 1000 1000 1000 1000 1000 1000 1000 1000 1000 1000 1000 1000 1000 1000 1000 1000.01 1000.01 1000.01 1000.01 1000.01 1000 1000 1000 1000 1000 1000 1000 1000 1000 1000 1000 1000 1000 1000 1000 1000 1000 1000 1000 1000 1000 1000 1000 1000 1000 1000 1000 1000 1000 1000 1000 1000 1000 1000 1000 1000.01 1000.01 1000.01 1000.01 1000.01 1000.01 1000 1000 1000 1000 1000 1000 1000 1000 1000 1000 1000 1000 1000 1000 1000 1000 1000 1000 1000 1000 1000 1000 1000 1000 1000 1000 1000 1000 1000 1000 1000 1000 1000 1000 1000 1000.01 1000.01 1000.01 1000.01 1000.01 1000 1000 1000 1000 1000 1000 1000 1000 1000 1000 1000 1000 1000 1000 1000 1000 1000 1000 1000 1000 1000 1000 1000 1000 1000 1000 1000 1000 1000 1000 1000 1000 1000 1000 1000 1000 1000 1000.01 1000.01 1000.01 1000.01 1000 1000 1000 1000 1000 1000 1000 1000 1000 1000 1000 1000 1000 1000 1000 1000 1000 1000 1000 1000 1000 1000 1000 1000 1000 1000 1000 1000 1000 1000 1000 1000 1000 1000 1000 1000 1000 1000.01 1000.01 1000.01 1000.01 1000.01 1000 1000 1000 1000 1000 1000 1000 1000 1000 1000 1000 1000 1000 1000 1000 1000 1000 1000 1000 1000 1000 1000 1000 1000 1000 1000 1000 1000 1000 1000 1000 1000 1000 1000 1000 1000.01 1000.01 1000.01 1000.01 1000.01 1000.01 1000 1000 1000 1000 1000 1000 1000 1000 1000 1000 1000 1000 1000 1000 1000 1000 1000 1000 1000 1000 1000 1000 1000 1000 1000 1000 1000 1000 1000 1000 1000 1000 1000 1000 1000 1000.01 1000.01 1000.01 1000.01 1000.01 1000 1000 1000 1000 1000 1000 1000 1000 1000 1000 1000 1000 1000 1000 1000 1000 1000 1000 1000 1000 1000 1000 1000 1000 1000 1000 1000 1000 1000 1000 1000 1000 1000 1000 1000 1000 1000 1000.01 1000.01 1000.01 1000.01 1000 1000 1000 1000 1000 1000 1000 1000 1000 1000 1000 1000 1000 1000 1000 1000 1000 1000 1000 1000 1000 1000 1000 1000 1000 1000 1000 1000 1000 1000 1000 1000 1000 1000 1000 1000 1000 1000.01 1000.01 1000.01 1000.01 1000.01 1000 1000 1000 1000 1000 1000 1000 1000 1000 1000 1000 1000 1000 1000 1000 1000 1000 1000 1000 1000 1000 1000 1000 1000 1000 1000 1000 1000 1000 1000 1000 1000 1000 1000 1000 1000.01 1000.01 1000.01 1000.01 1000.01 1000.01 1000 1000 1000 1000 1000 1000 1000 1000 1000 1000 1000 1000 1000 1000 1000 1000 1000 1000 1000 1000 1000 1000 1000 1000 1000 1000 1000 1000 1000 1000 1000 1000 1000 1000 1000 1000.01 1000.01 1000.01 1000.01 1000.01 1000 1000 1000 1000 1000 1000 1000 1000 1000 1000 1000 1000 1000 1000 1000 1000 1000 1000 1000 1000 1000 1000 1000 1000 1000 1000 1000 1000 1000 1000 1000 1000 1000 1000 1000 1000 1000 1000.01 1000.01 1000.03 1000.02 1000.02 1000.01 1000.01 1000 1000.01 1000.01 1000 1000 1000.01 1000.01 1000.01 1000.01 1000.01 1000.01 1000.01 1000.01 1000.01 1000 1000.01 1000.01 1000 1000 1000.01 1000.01 1000 1000.01 1000.01 1000 1000 1000.01 1000.01 1000 1000 1000.01 1000.01 1000 1000.02 1000.02 1000.03 1000.03 1000.03 1000.03 1000.01 1000.01 1000.01 1000.01 1000.01 1000.01 1000.01 1000.01 1000.01 1000.01 1000.01 1000.01 1000.01 1000.01 1000.01 1000.01 1000.01 1000.01 1000.01 1000.01 1000.01 1000.01 1000.01 1000.01 1000.01 1000.01 1000.01 1000.01 1000.01 1000.01 1000.01 1000.01 1000.01 1000.01 1000.01 1000.02 1000.03 1000.03 1000.04 1000.03 1000.03 1000.01 1000.01 1000.01 1000.01 1000.01 1000.01 1000.01 1000.01 1000.01 1000.01 1000.01 1000.01 1000.01 1000.01 1000.01 1000.01 1000.01 1000.01 1000.01 1000.01 1000.01 1000.01 1000.01 1000.01 1000.01 1000.01 1000.01 1000.01 1000.01 1000.01 1000.01 1000.01 1000.01 1000.01 1000.01 1000.03 1000.03 1000.04 1000 1000 1000 1000 1000 1000 1000 1000 1000 1000 1000 1000 1000 1000 1000 1000 1000 1000 1000 1000 1000 1000 1000 1000 1000 1000 1000 1000 1000 1000 1000 1000 1000 1000 1000 1000 1000 1000 1000 1000 1000 1000 1000 1000 1000 1000 1000 1000 1000 1000 1000 1000 1000 1000 1000 1000 1000 1000 1000 1000 1000 1000 1000 1000 1000 1000 1000 1000 1000 1000 1000 1000 1000 1000 1000 1000 1000 1000 1000 1000 1000 1000 1000 1000 1000 1000 1000 1000 1000 1000 1000 1000 1000 1000 1000 1000 1000 1000 1000 1000 1000 1000 1000 1000 1000 1000 1000 1000 1000 1000 1000 1000 1000 1000 1000 1000 1000 1000 1000 1000 1000 1000 1000 1000 1000 1000 1000 1000 1000 1000 1000 1000 1000 1000 1000 1000 1000 1000 1000 1000 1000 1000 1000 1000 1000 1000 1000 1000 1000 1000 1000 1000 1000 1000 1000 1000 1000 1000 1000 1000 1000 1000 1000 1000 1000 1000 1000 1000 1000 1000 1000 1000 1000 1000 1000 1000 1000 1000 1000 1000 1000 1000 1000 1000 1000 1000 1000 1000 1000 1000 1000 1000 1000 1000 1000 1000 1000 1000 1000 1000 1000 1000 1000 1000 1000 1000 1000 1000 1000 1000 1000 1000 1000 1000 1000 1000 1000 1000 1000 1000 1000 1000 1000 1000 1000 1000 1000 1000 1000 1000 1000 1000 1000 1000 1000 1000 1000 1000 1000 1000 1000 1000 1000 1000 1000 1000 1000 1000 1000 1000 1000 1000 1000 1000 1000 1000 1000 1000 1000 1000 1000 1000 1000 1000 1000 1000 1000 1000 1000 1000 1000 1000 1000 1000 1000 1000 1000 1000 1000 1000 1000 1000 1000 1000 1000 1000 1000 1000 1000 1000 1000 1000 1000 1000 1000 1000 1000 1000 1000 1000 1000 1000 1000 1000 1000 1000 1000 1000 1000 1000 1000 1000 1000 1000 1000 1000 1000 1000 1000 1000 1000 1000 1000 1000 1000 1000 1000 1000 
</DataArray>
<DataArray type="Float32" Name="Velocity" NumberOfComponents="3" format="ascii">
0.004110476 0.0061510927 0
0.0010724827 0.0059201452 0
-0.00013681932 0.0059589143 0
1.0099938e-05 0.0050042151 0
1.770333e-06 0.0042160372 0
0 0.0028426014 0
1.9633764e-07 0.0042274292 0
-1.9710509e-07 0.0042274292 0
1.2251196e-09 0.0028429972 0
-2.2033553e-10 0.0028430244 0
4.0530824e-07 0.0042274268 0
-1.537231e-08 0.0042274282 0
-9.4507266e-07 0.004227425 0
0 0.0051561333 0
5.6228293e-07 0.004227425 0
2.3933131e-07 0.0042274282 0
1.378917e-08 0.0042274282 0
-2.6760171e-07 0.0042274282 0
4.7490187e-07 0.0042274254 0
0 0.0028426014 0
3.3991668e-07 0.0042274273 0
-3.4011666e-07 0.0042274273 0
1.0453276e-09 0.0028430065 0
-1.0453276e-09 0.0028430065 0
3.4001047e-07 0.0042274273 0
-3.4001047e-07 0.0042274273 0
0 0.0028426014 0
3.4001047e-07 0.0042274273 0
-3.4001047e-07 0.0042274273 0
1.0453276e-09 0.0028430065 0
-1.0453276e-09 0.0028430065 0
3.4001047e-07 0.0042274273 0
-3.4001047e-07 0.0042274273 0
1.0453276e-09 0.0028430065 0
-1.0453276e-09 0.0028430065 0
3.4042407e-07 0.0042274273 0
-3.3974896e-07 0.0042274273 0
1.9394536e-08 0.0028434973 0
-0.00029789397 0.0041697002 0
-0.0010997485 0.0039595123 0
-0.0042597358 0.0042478712 0
0.0039814357 0.0013704691 0
0.0012880545 0.0014438124 0
0.00021206711 0.0014153444 0
1.2836404e-05 0.0012323773 0
9.9937497e-06 0.0012515449 0
-2.0600057e-09 0.00074902549 0
-1.0462507e-07 0.0012544253 0
1.0433335e-07 0.0012544253 0
-4.5993053e-07 0.00083923916 0
1.9521295e-07 0.00083961512 0
-1.9487389e-07 0.0012544253 0
-1.5552219e-08 0.0012544252 0
-2.219637e-07 0.001254424 0
1.2260261e-11 0.0015246487 0
-4.6283409e-07 0.0012544241 0
5.8747315e-08 0.001254425 0
4.8205715e-07 0.0012544252 0
-2.9822851e-07 0.0012544267 0
1.8526292e-07 0.0012544253 0
-4.3598382e-11 0.0007490284 0
-4.0102341e-07 0.0012544249 0
4.0095441e-07 0.0012544249 0
-5.9062933e-07 0.00083936384 0
5.9062933e-07 0.00083936384 0
-4.0098945e-07 0.0012544249 0
4.0098945e-07 0.0012544249 0
6.1845636e-15 0.0007490284 0
-4.0098945e-07 0.0012544249 0
4.0098945e-07 0.0012544249 0
-5.9062933e-07 0.00083936384 0
5.9062933e-07 0.00083936384 0
-4.0098945e-07 0.0012544249 0
4.0098945e-07 0.0012544249 0
-5.9062933e-07 0.00083936384 0
5.9062933e-07 0.00083936384 0
-4.0084018e-07 0.0012544249 0
4.0115575e-07 0.0012544249 0
-1.3985225e-05 0.00086775125 0
-0.00028961079 0.0012081306 0
-0.0012403845 0.0012464731 0
-0.0039464729 0.0010713488 0
0.0038709238 0.00023951399 0
0.0012666133 0.00031967144 0
0.00033446425 0.00012520843 0
1.4328962e-05 8.7825319e-05 0
3.4393015e-06 5.4858545e-05 0
6.8655703e-07 1.1138643e-05 0
4.447042e-07 5.5663189e-05 0
1.5831881e-07 5.5662418e-05 0
5.4492079e-07 1.1260532e-05 0
-5.1669952e-07 1.126993e-05 0
-2.2489021e-07 5.5661574e-05 0
-8.3118714e-08 5.5660872e-05 0
-3.4312868e-07 5.5655815e-05 0
7.9286621e-14 0.00013022767 0
3.4507133e-07 5.5655815e-05 0
-2.8652303e-07 5.5660876e-05 0
-3.1768423e-07 5.5660872e-05 0
1.89894e-07 5.5660876e-05 0
6.693724e-08 5.5663248e-05 0
1.3577899e-07 1.1140179e-05 0
3.643888e-07 5.5663215e-05 0
3.5059168e-07 5.5661272e-05 0
3.1969182e-07 1.1264531e-05 0
-3.1969182e-07 1.1264531e-05 0
2.8654247e-08 5.5661272e-05 0
-2.1566417e-07 5.5661578e-05 0
-1.9718671e-15 1.1143499e-05 0
2.1566417e-07 5.5661578e-05 0
-2.8654247e-08 5.5661272e-05 0
3.1969182e-07 1.1264531e-05 0
-3.1969182e-07 1.1264531e-05 0
2.8654247e-08 5.5661272e-05 0
-2.8654247e-08 5.5661272e-05 0
3.1969182e-07 1.1264531e-05 0
-3.1969182e-07 1.1264531e-05 0
-3.9201501e-07 5.5661272e-05 0
-1.1621529e-06 5.5664961e-05 0
-6.3190955e-06 1.1178005e-05 0
-0.00015076574 0.00015607543 0
-0.0011976446 0.00024968942 0
-0.0041376832 0.00025970678 0
0.0042265286 0.00015211944 0
0.0012341671 0.00014115519 0
8.9434659e-05 6.0524351e-05 0
2.8614975e-06 3.5628875e-06 0
6.4406844e-09 1.9173926e-06 0
-1.3836027e-13 2.1626768e-08 0
-4.7882347e-09 1.9519669e-06 0
4.7569988e-09 1.9519655e-06 0
-1.2471094e-13 2.168737e-08 0
2.4498256e-13 2.1696609e-08 0
-4.7451851e-09 1.9519662e-06 0
4.7880282e-09 1.9519648e-06 0
-1.2465916e-08 1.9519593e-06 0
0 9.2800819e-06 0
1.2465916e-08 1.9519593e-06 0
-4.7753685e-09 1.9519648e-06 0
4.765063e-09 1.9519648e-06 0
-4.7868793e-09 1.9519648e-06 0
4.7591482e-09 1.9519669e-06 0
-4.8560636e-14 2.1627727e-08 0
-4.7742645e-09 1.9519664e-06 0
4.7664432e-09 1.9519655e-06 0
-2.2022788e-13 2.1690436e-08 0
2.2022788e-13 2.1690436e-08 0
-4.7704978e-09 1.9519655e-06 0
4.7704978e-09 1.9519662e-06 0
0 2.1628754e-08 0
-4.7704978e-09 1.9519662e-06 0
4.7704978e-09 1.9519655e-06 0
-2.2022788e-13 2.1690436e-08 0
2.2022788e-13 2.1690436e-08 0
-4.7704978e-09 1.9519655e-06 0
4.7704978e-09 1.9519655e-06 0
-2.2022788e-13 2.1690436e-08 0
2.2022788e-13 2.1690436e-08 0
-4.7539541e-09 1.9519655e-06 0
3.3973653e-09 1.951968e-06 0
-1.9874876e-06 2.1048658e-08 0
-5.5820234e-05 6.3311477e-06 0
-0.0012545445 2.5053298e-05 0
-0.0042299135 2.3645256e-05 0
0.0042160251 2.3679526e-05 0
0.0012514846 2.7244147e-05 0
5.4866607e-05 2.7488898e-06 0
1.9173954e-06 7.8858804e-09 0
6.1980461e-09 6.1980456e-09 0
0 4.7899964e-09 0
-4.7746509e-09 6.2332068e-09 0
4.7746509e-09 6.2332064e-09 0
0 4.7900177e-09 0
0 4.7900248e-09 0
-4.7746509e-09 6.2332068e-09 0
4.7746509e-09 6.233206e-09 0
-4.7746509e-09 6.2332046e-09 0
0 2.1780103e-08 0
4.7746509e-09 6.2332046e-09 0
-4.7746509e-09 6.233206e-09 0
4.7746509e-09 6.233206e-09 0
-4.7746509e-09 6.233206e-09 0
4.7746509e-09 6.2332068e-09 0
0 4.7899968e-09 0
-4.7746562e-09 6.2332068e-09 0
4.7746562e-09 6.2332068e-09 0
0 4.7900204e-09 0
0 4.7900204e-09 0
-4.7746562e-09 6.2332068e-09 0
4.7746562e-09 6.2332068e-09 0
0 4.7899968e-09 0
-4.7746562e-09 6.2332068e-09 0
4.7746562e-09 6.2332068e-09 0
0 4.7900204e-09 0
0 4.7900204e-09 0
-4.7746562e-09 6.2332068e-09 0
4.7746562e-09 6.2332068e-09 0
0 4.7900204e-09 0
0 4.7900204e-09 0
-4.7746562e-09 6.2332068e-09 0
3.4370788e-09 6.2332077e-09 0
-1.9220483e-06 4.7192166e-09 0
-5.4865024e-05 1.8975842e-06 0
-0.0012515155 1.8379882e-05 0
-0.0042159273 1.5973375e-05 0
0.0028430726 -2.7634477e-09 0
0.00084772118 8.1554958e-07 0
1.1278284e-05 5.2615201e-07 0
2.1700993e-08 -1.344167e-13 0
4.7900266e-09 0 0
0 0 0
-4.7746509e-09 0 0
4.7746509e-09 0 0
0 0 0
0 0 0
-4.7746509e-09 0 0
4.7746509e-09 0 0
-4.7746509e-09 0 0
0 0 0
4.7746509e-09 0 0
-4.7746509e-09 0 0
4.7746509e-09 0 0
-4.7746509e-09 0 0
4.7746509e-09 0 0
0 0 0
-4.7746562e-09 0 0
4.7746562e-09 0 0
0 0 0
0 0 0
-4.7746562e-09 0 0
4.7746562e-09 0 0
0 0 0
-4.7746562e-09 0 0
4.7746562e-09 0 0
0 0 0
0 0 0
-4.7746562e-09 0 0
4.7746562e-09 0 0
0 0 0
0 0 0
-4.7746562e-09 0 0
4.7746562e-09 0 0
-2.6196162e-08 -1.3222722e-13 0
-1.1255019e-05 5.5153055e-07 0
-0.00083920354 2.7065133e-07 0
-0.0028430328 -9.0322549e-10 0
0.0042274292 1.9635405e-07 0
0.0012544253 -1.0461979e-07 0
5.5663695e-05 5.7529246e-07 0
1.9519669e-06 -4.7876205e-09 0
6.2332068e-09 -4.7746509e-09 0
0 -4.7746509e-09 0
-4.7746509e-09 -4.7746509e-09 0
4.7746509e-09 -4.7746509e-09 0
0 -4.7746509e-09 0
0 -4.7746509e-09 0
-4.7746509e-09 -4.7746509e-09 0
4.7746509e-09 -4.7746509e-09 0
-4.7746509e-09 -4.7746509e-09 0
0 -4.7746509e-09 0
4.7746509e-09 -4.7746509e-09 0
-4.7746509e-09 -4.7746509e-09 0
4.7746509e-09 -4.7746509e-09 0
-4.7746509e-09 -4.7746509e-09 0
4.7746509e-09 -4.7746509e-09 0
0 -4.7746509e-09 0
-4.7746562e-09 -4.7746509e-09 0
4.7746562e-09 -4.7746509e-09 0
0 -4.7746509e-09 0
0 -4.7746509e-09 0
-4.7746562e-09 -4.7746509e-09 0
4.7746562e-09 -4.7746509e-09 0
0 -4.7746509e-09 0
-4.7746562e-09 -4.7746509e-09 0
4.7746562e-09 -4.7746509e-09 0
0 -4.7746509e-09 0
0 -4.7746509e-09 0
-4.7746562e-09 -4.7746509e-09 0
4.7746562e-09 -4.7746509e-09 0
0 -4.7746509e-09 0
0 -4.7746509e-09 0
-4.7746562e-09 -4.7746509e-09 0
3.4074827e-09 -4.7746509e-09 0
-1.9566328e-06 -4.7874908e-09 0
-5.566455e-05 4.6005141e-07 0
-0.0012544001 -1.0461178e-07 0
-0.0042274217 1.9634882e-07 0
0.0042274292 -1.9710509e-07 0
0.0012544253 1.0433335e-07 0
5.5662418e-05 1.5831884e-07 0
1.9519655e-06 4.7569988e-09 0
6.2332064e-09 4.7746509e-09 0
0 4.7746509e-09 0
-4.7746509e-09 4.7746509e-09 0
4.7746509e-09 4.7746509e-09 0
0 4.7746509e-09 0
0 4.7746509e-09 0
-4.7746509e-09 4.7746509e-09 0
4.7746509e-09 4.7746509e-09 0
-4.7746509e-09 4.7746509e-09 0
0 4.7746509e-09 0
4.7746509e-09 4.7746509e-09 0
-4.7746509e-09 4.7746509e-09 0
4.7746509e-09 4.7746509e-09 0
-4.7746509e-09 4.7746509e-09 0
4.7746509e-09 4.7746509e-09 0
0 4.7746509e-09 0
-4.7746562e-09 4.7746509e-09 0
4.7746562e-09 4.7746509e-09 0
0 4.7746509e-09 0
0 4.7746509e-09 0
-4.7746562e-09 4.7746509e-09 0
4.7746562e-09 4.7746509e-09 0
0 4.7746509e-09 0
-4.7746562e-09 4.7746509e-09 0
4.7746562e-09 4.7746509e-09 0
0 4.7746509e-09 0
0 4.7746509e-09 0
-4.7746562e-09 4.7746509e-09 0
4.7746562e-09 4.7746509e-09 0
0 4.7746509e-09 0
0 4.7746509e-09 0
-4.7746562e-09 4.7746509e-09 0
3.4074832e-09 4.7746509e-09 0
-1.9566319e-06 4.7598618e-09 0
-5.5661778e-05 6.7821259e-07 0
-0.0012544001 1.0435276e-07 0
-0.0042274217 -1.9702698e-07 0
0.0028429972 1.2251196e-09 0
0.00083923916 -4.5993053e-07 0
1.1260532e-05 5.4492079e-07 0
2.168737e-08 -1.2471094e-13 0
4.7900177e-09 0 0
0 0 0
-4.7746509e-09 0 0
4.7746509e-09 0 0
0 0 0
0 0 0
-4.7746509e-09 0 0
4.7746509e-09 0 0
-4.7746509e-09 0 0
0 0 0
4.7746509e-09 0 0
-4.7746509e-09 0 0
4.7746509e-09 0 0
-4.7746509e-09 0 0
4.7746509e-09 0 0
0 0 0
-4.7746562e-09 0 0
4.7746562e-09 0 0
0 0 0
0 0 0
-4.7746562e-09 0 0
4.7746562e-09 0 0
0 0 0
-4.7746562e-09 0 0
4.7746562e-09 0 0
0 0 0
0 0 0
-4.7746562e-09 0 0
4.7746562e-09 0 0
0 0 0
0 0 0
-4.7746562e-09 0 0
4.7746562e-09 0 0
-2.6200219e-08 -1.2284413e-13 0
-1.126235e-05 1.0181762e-07 0
-0.00083922606 -4.5992968e-07 0
-0.0028430349 1.2250316e-09 0
0.0028430244 -2.2033553e-10 0
0.00083961512 1.9521296e-07 0
1.126993e-05 -5.1669952e-07 0
2.1696609e-08 2.4498256e-13 0
4.7900248e-09 0 0
0 0 0
-4.7746509e-09 0 0
4.7746509e-09 0 0
0 0 0
0 0 0
-4.7746509e-09 0 0
4.7746509e-09 0 0
-4.7746509e-09 0 0
0 0 0
4.7746509e-09 0 0
-4.7746509e-09 0 0
4.7746509e-09 0 0
-4.7746509e-09 0 0
4.7746509e-09 0 0
0 0 0
-4.7746562e-09 0 0
4.7746562e-09 0 0
0 0 0
0 0 0
-4.7746562e-09 0 0
4.7746562e-09 0 0
0 0 0
-4.7746562e-09 0 0
4.7746562e-09 0 0
0 0 0
0 0 0
-4.7746562e-09 0 0
4.7746562e-09 0 0
0 0 0
0 0 0
-4.7746562e-09 0 0
4.7746562e-09 0 0
-2.6209303e-08 2.4486972e-13 0
-1.1270292e-05 -5.1674499e-07 0
-0.00083960313 1.9521215e-07 0
-0.0028430626 -2.2032004e-10 0
0.0042274268 4.0530824e-07 0
0.0012544253 -1.9487389e-07 0
5.5661574e-05 -2.2489021e-07 0
1.9519662e-06 -4.7451851e-09 0
6.2332068e-09 -4.7746509e-09 0
0 -4.7746509e-09 0
-4.7746509e-09 -4.7746509e-09 0
4.7746509e-09 -4.7746509e-09 0
0 -4.7746509e-09 0
0 -4.7746509e-09 0
-4.7746509e-09 -4.7746509e-09 0
4.7746509e-09 -4.7746509e-09 0
-4.7746509e-09 -4.7746509e-09 0
0 -4.7746509e-09 0
4.7746509e-09 -4.7746509e-09 0
-4.7746509e-09 -4.7746509e-09 0
4.7746509e-09 -4.7746509e-09 0
-4.7746509e-09 -4.7746509e-09 0
4.7746509e-09 -4.7746509e-09 0
0 -4.7746509e-09 0
-4.7746562e-09 -4.7746509e-09 0
4.7746562e-09 -4.7746509e-09 0
0 -4.7746509e-09 0
0 -4.7746509e-09 0
-4.7746562e-09 -4.7746509e-09 0
4.7746562e-09 -4.7746509e-09 0
0 -4.7746509e-09 0
-4.7746562e-09 -4.7746509e-09 0
4.7746562e-09 -4.7746509e-09 0
0 -4.7746509e-09 0
0 -4.7746509e-09 0