<?xml version="1.0" ?>

<VTKFile type="UnstructuredGrid" version="0.1" byte_order="BigEndian">

<UnstructuredGrid>

<Piece NumberOfPoints= " 2009 " NumberOfCells=" 2009 ">

<PointData Scalars="Pressure" Vectors="Velocity">

<DataArray type="Float32" Name="Pressure" format="ascii">

8.7979 21.2446 23.1761 13.0898 9.54897 9.54897 6.65203 6.65203 10.3 10.3 6.65203 6.65203 6.65203 6.86661 6.65203 6.65203 6.65203 6.65203 6.65203 9.54897 6.65203 6.65203 10.3 10.3 6.65203 6.65203 9.54897 6.65203 6.65203 10.3 10.3 6.65203 6.65203 10.3 10.3 6.65203 13.4116 20.0643 13.9481 12.9825 17.7036 20.3862 18.0255 16.0941 18.1328 9.33438 5.90098 7.18849 7.18849 6.43744 6.43744 7.18849 7.0812 7.0812 7.93955 7.0812 7.0812 7.0812 7.0812 7.18849 5.90098 7.18849 7.18849 6.43744 6.43744 7.18849 7.18849 5.90098 7.18849 7.18849 6.43744 6.43744 7.18849 7.18849 6.43744 6.43744 7.18849 9.44167 16.6306 12.9825 12.1241 17.1671 21.1373 16.5233 18.4547 19.957 8.7979 9.01249 6.11556 6.11556 10.0854 10.0854 6.11556 6.11556 6.11556 7.18849 6.11556 6.11556 6.11556 6.11556 6.11556 8.69061 6.11556 6.11556 10.0854 10.0854 6.11556 6.11556 8.69061 6.11556 6.11556 10.0854 10.0854 6.11556 6.11556 10.1927 10.0854 6.11556 8.04684 20.0643 13.3043 11.4803 20.2789 9.87085 6.75932 5.25722 6.33015 7.83225 0.965598 4.50618 4.50618 0.965598 0.965598 4.50618 4.50618 4.50618 1.18018 4.50618 4.50618 4.50618 4.50618 4.50618 0.965598 4.50618 4.50618 0.965598 0.965598 4.50618 4.50618 0.965598 4.50618 4.50618 0.965598 0.965598 4.50618 4.50618 0.965598 0.965598 4.50618 9.54897 9.97815 14.9138 16.5233 13.9481 12.1241 7.61767 6.54473 12.9825 5.36451 0 2.68223 2.68223 0 0 2.68223 2.68223 2.68223 5.14993 2.68223 2.68223 2.68223 2.68223 2.68223 0 2.68223 2.68223 0 0 2.68223 2.68223 0 2.68223 2.68223 0 0 2.68223 2.68223 0 0 2.68223 7.83225 6.65203 9.11979 9.65626 10.7292 17.8109 21.5665 19.957 4.2916 2.36036 0 0 0 0 0 0 0 0 1.82391 0 0 0 0 0 0 0 0 0 0 0 0 0 0 0 0 0 0 0 0 0 0 0 0.965598 10.1927 6.43744 10.5146 8.47602 7.18849 6.11556 5.5791 3.11139 0 0 0 0 0 0 0 0 0 0 0 0 0 0 0 0 0 0 0 0 0 0 0 0 0 0 0 0 0 0 0 2.68223 4.50618 6.11556 7.18849 6.65203 6.65203 7.18849 6.11556 4.50618 2.68223 0 0 0 0 0 0 0 0 0 0 0 0 0 0 0 0 0 0 0 0 0 0 0 0 0 0 0 0 0 0 0 2.68223 4.50618 6.11556 7.18849 6.65203 10.3 6.43744 10.0854 0.965598 0 0 0 0 0 0 0 0 0 0 0 0 0 0 0 0 0 0 0 0 0 0 0 0 0 0 0 0 0 0 0 0 0 0.965598 10.0854 6.43744 10.3 10.3 6.43744 10.0854 0.965598 0 0 0 0 0 0 0 0 0 0 0 0 0 0 0 0 0 0 0 0 0 0 0 0 0 0 0 0 0 0 0 0 0 0.965598 10.0854 6.43744 10.3 6.65203 7.18849 6.11556 4.50618 2.68223 0 0 0 0 0 0 0 0 0 0 0 0 0 0 0 0 0 0 0 0 0 0 0 0 0 0 0 0 0 0 0 2.68223 4.50618 6.11556 7.18849 6.65203 6.65203 7.0812 6.11556 4.50618 2.68223 0 0 0 0 0 0 0 0 0 0 0 0 0 0 0 0 0 0 0 0 0 0 0 0 0 0 0 0 0 0 0 2.68223 4.50618 6.11556 7.0812 6.65203 6.65203 7.0812 6.11556 4.50618 2.68223 0 0 0 0 0 0 0 0 0 0 0 0 0 0 0 0 0 0 0 0 0 0 0 0 0 0 0 0 0 0 0 2.68223 4.50618 6.11556 7.0812 6.65203 6.86661 7.93955 7.18849 1.18018 5.14993 1.82391 0 0 0 0 0 0 0 0 0 0 0 0 0 0 0 0 0 0 0 0 0 0 0 0 0 0 0 0 0 1.82391 5.14993 1.18018 7.18849 7.93955 6.86661 6.65203 7.0812 6.11556 4.50618 2.68223 0 0 0 0 0 0 0 0 0 0 0 0 0 0 0 0 0 0 0 0 0 0 0 0 0 0 0 0 0 0 0 2.68223 4.50618 6.11556 7.0812 6.65203 6.65203 7.0812 6.11556 4.50618 2.68223 0 0 0 0 0 0 0 0 0 0 0 0 0 0 0 0 0 0 0 0 0 0 0 0 0 0 0 0 0 0 0 2.68223 4.50618 6.11556 7.0812 6.65203 6.65203 7.0812 6.11556 4.50618 2.68223 0 0 0 0 0 0 0 0 0 0 0 0 0 0 0 0 0 0 0 0 0 0 0 0 0 0 0 0 0 0 0 2.68223 4.50618 6.11556 7.0812 6.65203 6.65203 7.0812 6.11556 4.50618 2.68223 0 0 0 0 0 0 0 0 0 0 0 0 0 0 0 0 0 0 0 0 0 0 0 0 0 0 0 0 0 0 0 2.68223 4.50618 6.11556 7.0812 6.65203 6.65203 7.18849 6.11556 4.50618 2.68223 0 0 0 0 0 0 0 0 0 0 0 0 0 0 0 0 0 0 0 0 0 0 0 0 0 0 0 0 0 0 0 2.68223 4.50618 6.11556 7.18849 6.65203 9.54897 5.90098 8.69061 0.965598 0 0 0 0 0 0 0 0 0 0 0 0 0 0 0 0 0 0 0 0 0 0 0 0 0 0 0 0 0 0 0 0 0 0.965598 8.69061 5.90098 9.54897 6.65203 7.18849 6.11556 4.50618 2.68223 0 0 0 0 0 0 0 0 0 0 0 0 0 0 0 0 0 0 0 0 0 0 0 0 0 0 0 0 0 0 0 2.68223 4.50618 6.11556 7.18849 6.65203 6.65203 7.18849 6.11556 4.50618 2.68223 0 0 0 0 0 0 0 0 0 0 0 0 0 0 0 0 0 0 0 0 0 0 0 0 0 0 0 0 0 0 0 2.68223 4.50618 6.11556 7.18849 6.65203 10.3 6.43744 10.0854 0.965598 0 0 0 0 0 0 0 0 0 0 0 0 0 0 0 0 0 0 0 0 0 0 0 0 0 0 0 0 0 0 0 0 0 0.965598 10.0854 6.43744 10.3 10.3 6.43744 10.0854 0.965598 0 0 0 0 0 0 0 0 0 0 0 0 0 0 0 0 0 0 0 0 0 0 0 0 0 0 0 0 0 0 0 0 0 0.965598 10.0854 6.43744 10.3 6.65203 7.18849 6.11556 4.50618 2.68223 0 0 0 0 0 0 0 0 0 0 0 0 0 0 0 0 0 0 0 0 0 0 0 0 0 0 0 0 0 0 0 2.68223 4.50618 6.11556 7.18849 6.65203 6.65203 7.18849 6.11556 4.50618 2.68223 0 0 0 0 0 0 0 0 0 0 0 0 0 0 0 0 0 0 0 0 0 0 0 0 0 0 0 0 0 0 0 2.68223 4.50618 6.11556 7.18849 6.65203 9.54897 5.90098 8.69061 0.965598 0 0 0 0 0 0 0 0 0 0 0 0 0 0 0 0 0 0 0 0 0 0 0 0 0 0 0 0 0 0 0 0 0 0.965598 8.69061 5.90098 9.54897 6.65203 7.18849 6.11556 4.50618 2.68223 0 0 0 0 0 0 0 0 0 0 0 0 0 0 0 0 0 0 0 0 0 0 0 0 0 0 0 0 0 0 0 2.68223 4.50618 6.11556 7.18849 6.65203 6.65203 7.18849 6.11556 4.50618 2.68223 0 0 0 0 0 0 0 0 0 0 0 0 0 0 0 0 0 0 0 0 0 0 0 0 0 0 0 0 0 0 0 2.68223 4.50618 6.11556 7.18849 6.65203 10.3 6.43744 10.0854 0.965598 0 0 0 0 0 0 0 0 0 0 0 0 0 0 0 0 0 0 0 0 0 0 0 0 0 0 0 0 0 0 0 0 0 0.965598 10.0854 6.43744 10.3 10.3 6.43744 10.0854 0.965598 0 0 0 0 0 0 0 0 0 0 0 0 0 0 0 0 0 0 0 0 0 0 0 0 0 0 0 0 0 0 0 0 0 0.965598 10.0854 6.43744 10.3 6.65203 7.18849 6.11556 4.50618 2.68223 0 0 0 0 0 0 0 0 0 0 0 0 0 0 0 0 0 0 0 0 0 0 0 0 0 0 0 0 0 0 0 2.68223 4.50618 6.11556 7.18849 6.65203 6.65203 7.18849 6.11556 4.50618 2.68223 0 0 0 0 0 0 0 0 0 0 0 0 0 0 0 0 0 0 0 0 0 0 0 0 0 0 0 0 0 0 0 2.68223 4.50618 6.11556 7.18849 6.65203 10.3 6.43744 10.1927 0.965598 0 0 0 0 0 0 0 0 0 0 0 0 0 0 0 0 0 0 0 0 0 0 0 0 0 0 0 0 0 0 0 0 0 0.965598 10.0854 6.43744 10.3 10.3 6.43744 10.0854 0.965598 0 0 0 0 0 0 0 0 0 0 0 0 0 0 0 0 0 0 0 0 0 0 0 0 0 0 0 0 0 0 0 0 0 0.965598 10.0854 6.43744 10.3 6.65203 7.18849 6.11556 4.50618 2.68223 0 0 0 0 0 0 0 0 1.82391 0 0 0 0 0 0 0 0 0 0 0 0 0 0 0 0 0 0 0 0 0 0 2.68223 4.50618 6.11556 7.18849 6.65203 13.4116 9.44167 8.04684 9.54897 7.83225 0 2.68223 2.68223 0 0 2.68223 2.68223 2.68223 5.14993 2.68223 2.68223 2.68223 2.68223 2.68223 0 2.68223 2.68223 0 0 2.68223 2.68223 0 2.68223 2.68223 0 0 2.68223 2.68223 0 0 2.68223 7.83225 7.29579 9.01249 9.76356 11.1584 20.0643 16.6306 20.0643 9.97815 6.65203 0.965598 4.50618 4.50618 0.965598 0.965598 4.50618 4.50618 4.50618 1.18018 4.50618 4.50618 4.50618 4.50618 4.50618 0.965598 4.50618 4.50618 0.965598 0.965598 4.50618 4.50618 0.965598 4.50618 4.50618 0.965598 0.965598 4.50618 4.50618 0.965598 0.965598 4.50618 7.29579 6.22285 18.7766 15.8795 18.562 13.9481 12.9825 13.3043 14.9138 9.11979 10.1927 6.11556 6.11556 10.0854 10.0854 6.11556 6.11556 6.11556 7.18849 6.11556 6.11556 6.11556 6.11556 6.11556 8.69061 6.11556 6.11556 10.0854 10.0854 6.11556 6.11556 8.69061 6.11556 6.11556 10.0854 10.0854 6.11556 6.11556 10.0854 10.0854 6.11556 9.01249 18.7766 14.1627 12.7679 16.9525 12.9825 12.1241 11.4803 16.5233 9.65626 6.43744 7.18849 7.18849 6.43744 6.43744 7.18849 7.0812 7.0812 7.93955 7.0812 7.0812 7.0812 7.0812 7.18849 5.90098 7.18849 7.18849 6.43744 6.43744 7.18849 7.18849 5.90098 7.18849 7.18849 6.43744 6.43744 7.18849 7.18849 6.43744 6.43744 7.18849 9.76356 15.8795 12.7679 12.1241 16.8452 17.7036 17.1671 20.2789 13.9481 10.7292 10.5146 6.65203 6.65203 10.3 10.3 6.65203 6.65203 6.65203 6.86661 6.65203 6.65203 6.65203 6.65203 6.65203 9.54897 6.65203 6.65203 10.3 10.3 6.65203 6.65203 9.54897 6.65203 6.65203 10.3 10.3 6.65203 6.65203 10.3 10.3 6.65203 11.1584 18.562 16.9525 16.8452 14.5919 0.1 0.1 0.1 0.1 0.1 0.1 0.1 0.1 0.1 0.1 0.1 0.1 0.1 0.1 0.1 0.1 0.1 0.1 0.1 0.1 0.1 0.1 0.1 0.1 0.1 0.1 0.1 0.1 0.1 0.1 0.1 0.1 0.1 0.1 0.1 0.1 0.1 0.1 0.1 0.1 0.1 0.1 0.1 0.1 0.1 0.1 0.1 0.1 0.1 0.1 0.1 0.1 0.1 0.1 0.1 0.1 0.1 0.1 0.1 0.1 0.1 0.1 0.1 0.1 0.1 0.1 0.1 0.1 0.1 0.1 0.1 0.1 0.1 0.1 0.1 0.1 0.1 0.1 0.1 0.1 0.1 0.1 0.1 0.1 0.1 0.1 0.1 0.1 0.1 0.1 0.1 0.1 0.1 0.1 0.1 0.1 0.1 0.1 0.1 0.1 0.1 0.1 0.1 0.1 0.1 0.1 0.1 0.1 0.1 0.1 0.1 0.1 0.1 0.1 0.1 0.1 0.1 0.1 0.1 0.1 0.1 0.1 0.1 0.1 0.1 0.1 0.1 0.1 0.1 0.1 0.1 0.1 0.1 0.1 0.1 0.1 0.1 0.1 0.1 0.1 0.1 0.1 0.1 0.1 0.1 0.1 0.1 0.1 0.1 0.1 0.1 0.1 0.1 0.1 0.1 0.1 0.1 0.1 0.1 0.1 0.1 0.1 0.1 0.1 0.1 0.1 0.1 0.1 0.1 0.1 0.1 0.1 0.1 0.1 0.1 0.1 0.1 0.1 0.1 0.1 0.1 0.1 0.1 0.1 0.1 0.1 0.1 0.1 0.1 0.1 0.1 0.1 0.1 0.1 0.1 0.1 0.1 0.1 0.1 0.1 0.1 0.1 0.1 0.1 0.1 0.1 0.1 0.1 0.1 0.1 0.1 0.1 0.1 0.1 0.1 0.1 0.1 0.1 0.1 0.1 0.1 0.1 0.1 0.1 0.1 0.1 0.1 0.1 0.1 0.1 0.1 0.1 0.1 0.1 0.1 0.1 0.1 0.1 0.1 0.1 0.1 0.1 0.1 0.1 0.1 0.1 0.1 0.1 0.1 0.1 0.1 0.1 0.1 0.1 0.1 0.1 0.1 0.1 0.1 0.1 0.1 0.1 0.1 0.1 0.1 0.1 0.1 0.1 0.1 0.1 0.1 0.1 0.1 0.1 0.1 0.1 0.1 0.1 0.1 0.1 0.1 0.1 0.1 0.1 0.1 0.1 0.1 0.1 0.1 0.1 0.1 0.1 0.1 0.1 0.1 0.1 0.1 0.1 0.1 0.1 0.1 0.1 0.1 0.1 0.1 0.1 0.1 0.1 0.1 0.1 0.1 0.1 0.1 0.1 0.1 0.1 0.1 0.1 0.1 0.1 0.1 0.1 0.1 0.1 0.1 0.1 0.1 0.1 
</DataArray>

<DataArray type="Float32" Name="Density" format="ascii">
1000.01 1000.02 1000.03 1000.01 1000.01 1000.01 1000.01 1000.01 1000.01 1000.01 1000.01 1000.01 1000.01 1000.01 1000.01 1000.01 1000.01 1000.01 1000.01 1000.01 1000.01 1000.01 1000.01 1000.01 1000.01 1000.01 1000.01 1000.01 1000.01 1000.01 1000.01 1000.01 1000.01 1000.01 1000.01 1000.01 1000.01 1000.02 1000.02 1000.01 1000.02 1000.02 1000.02 1000.02 1000.02 1000.01 1000.01 1000.01 1000.01 1000.01 1000.01 1000.01 1000.01 1000.01 1000.01 1000.01 1000.01 1000.01 1000.01 1000.01 1000.01 1000.01 1000.01 1000.01 1000.01 1000.01 1000.01 1000.01 1000.01 1000.01 1000.01 1000.01 1000.01 1000.01 1000.01 1000.01 1000.01 1000.01 1000.02 1000.01 1000.01 1000.02 1000.02 1000.02 1000.02 1000.02 1000.01 1000.01 1000.01 1000.01 1000.01 1000.01 1000.01 1000.01 1000.01 1000.01 1000.01 1000.01 1000.01 1000.01 1000.01 1000.01 1000.01 1000.01 1000.01 1000.01 1000.01 1000.01 1000.01 1000.01 1000.01 1000.01 1000.01 1000.01 1000.01 1000.01 1000.01 1000.01 1000.01 1000.02 1000.01 1000.01 1000.02 1000.01 1000.01 1000.01 1000.01 1000.01 1000 1000.01 1000.01 1000 1000 1000.01 1000.01 1000.01 1000 1000.01 1000.01 1000.01 1000.01 1000.01 1000 1000.01 1000.01 1000 1000 1000.01 1000.01 1000 1000.01 1000.01 1000 1000 1000.01 1000.01 1000 1000 1000.01 1000.01 1000.01 1000.02 1000.02 1000.02 1000.01 1000.01 1000.01 1000.01 1000.01 1000 1000 1000 1000 1000 1000 1000 1000 1000.01 1000 1000 1000 1000 1000 1000 1000 1000 1000 1000 1000 1000 1000 1000 1000 1000 1000 1000 1000 1000 1000 1000 1000.01 1000.01 1000.01 1000.01 1000.01 1000.02 1000.02 1000.02 1000 1000 1000 1000 1000 1000 1000 1000 1000 1000 1000 1000 1000 1000 1000 1000 1000 1000 1000 1000 1000 1000 1000 1000 1000 1000 1000 1000 1000 1000 1000 1000 1000 1000 1000 1000.01 1000.01 1000.01 1000.01 1000.01 1000.01 1000.01 1000 1000 1000 1000 1000 1000 1000 1000 1000 1000 1000 1000 1000 1000 1000 1000 1000 1000 1000 1000 1000 1000 1000 1000 1000 1000 1000 1000 1000 1000 1000 1000 1000 1000.01 1000.01 1000.01 1000.01 1000.01 1000.01 1000.01 1000.01 1000 1000 1000 1000 1000 1000 1000 1000 1000 1000 1000 1000 1000 1000 1000 1000 1000 1000 1000 1000 1000 1000 1000 1000 1000 1000 1000 1000 1000 1000 1000 1000 1000 1000.01 1000.01 1000.01 1000.01 1000.01 1000.01 1000.01 1000 1000 1000 1000 1000 1000 1000 1000 1000 1000 1000 1000 1000 1000 1000 1000 1000 1000 1000 1000 1000 1000 1000 1000 1000 1000 1000 1000 1000 1000 1000 1000 1000 1000 1000 1000.01 1000.01 1000.01 1000.01 1000.01 1000.01 1000 1000 1000 1000 1000 1000 1000 1000 1000 1000 1000 1000 1000 1000 1000 1000 1000 1000 1000 1000 1000 1000 1000 1000 1000 1000 1000 1000 1000 1000 1000 1000 1000 1000 1000 1000.01 1000.01 1000.01 1000.01 1000.01 1000.01 1000.01 1000 1000 1000 1000 1000 1000 1000 1000 1000 1000 1000 1000 1000 1000 1000 1000 1000 1000 1000 1000 1000 1000 1000 1000 1000 1000 1000 1000 1000 1000 1000 1000 1000 1000.01 1000.01 1000.01 1000.01 1000.01 1000.01 1000.01 1000.01 1000 1000 1000 1000 1000 1000 1000 1000 1000 1000 1000 1000 1000 1000 1000 1000 1000 1000 1000 1000 1000 1000 1000 1000 1000 1000 1000 1000 1000 1000 1000 1000 1000 1000.01 1000.01 1000.01 1000.01 1000.01 1000.01 1000.01 1000.01 1000 1000 1000 1000 1000 1000 1000 1000 1000 1000 1000 1000 1000 1000 1000 1000 1000 1000 1000 1000 1000 1000 1000 1000 1000 1000 1000 1000 1000 1000 1000 1000 1000 1000.01 1000.01 1000.01 1000.01 1000.01 1000.01 1000.01 1000 1000.01 1000 1000 1000 1000 1000 1000 1000 1000 1000 1000 1000 1000 1000 1000 1000 1000 1000 1000 1000 1000 1000 1000 1000 1000 1000 1000 1000 1000 1000 1000 1000 1000.01 1000 1000.01 1000.01 1000.01 1000.01 1000.01 1000.01 1000.01 1000 1000 1000 1000 1000 1000 1000 1000 1000 1000 1000 1000 1000 1000 1000 1000 1000 1000 1000 1000 1000 1000 1000 1000 1000 1000 1000 1000 1000 1000 1000 1000 1000 1000.01 1000.01 1000.01 1000.01 1000.01 1000.01 1000.01 1000.01 1000 1000 1000 1000 1000 1000 1000 1000 1000 1000 1000 1000 1000 1000 1000 1000 1000 1000 1000 1000 1000 1000 1000 1000 1000 1000 1000 1000 1000 1000 1000 1000 1000 1000.01 1000.01 1000.01 1000.01 1000.01 1000.01 1000.01 1000.01 1000 1000 1000 1000 1000 1000 1000 1000 1000 1000 1000 1000 1000 1000 1000 1000 1000 1000 1000 1000 1000 1000 1000 1000 1000 1000 1000 1000 1000 1000 1000 1000 1000 1000.01 1000.01 1000.01 1000.01 1000.01 1000.01 1000.01 1000.01 1000 1000 1000 1000 1000 1000 1000 1000 1000 1000 1000 1000 1000 1000 1000 1000 1000 1000 1000 1000 1000 1000 1000 1000 1000 1000 1000 1000 1000 1000 1000 1000 1000 1000.01 1000.01 1000.01 1000.01 1000.01 1000.01 1000.01 1000.01 1000 1000 1000 1000 1000 1000 1000 1000 1000 1000 1000 1000 1000 1000 1000 1000 1000 1000 1000 1000 1000 1000 1000 1000 1000 1000 1000 1000 1000 1000 1000 1000 1000 1000.01 1000.01 1000.01 1000.01 1000.01 1000.01 1000.01 1000 1000 1000 1000 1000 1000 1000 1000 1000 1000 1000 1000 1000 1000 1000 1000 1000 1000 1000 1000 1000 1000 1000 1000 1000 1000 1000 1000 1000 1000 1000 1000 1000 1000 1000 1000.01 1000.01 1000.01 1000.01 1000.01 1000.01 1000.01 1000 1000 1000 1000 1000 1000 1000 1000 1000 1000 1000 1000 1000 1000 1000 1000 1000 1000 1000 1000 1000 1000 1000 1000 1000 1000 1000 1000 1000 1000 1000 1000 1000 1000.01 1000.01 1000.01 1000.01 1000.01 1000.01 1000.01 1000.01 1000 1000 1000 1000 1000 1000 1000 1000 1000 1000 1000 1000 1000 1000 1000 1000 1000 1000 1000 1000 1000 1000 1000 1000 1000 1000 1000 1000 1000 1000 1000 1000 1000 1000.01 1000.01 1000.01 1000.01 1000.01 1000.01 1000.01 1000 1000 1000 1000 1000 1000 1000 1000 1000 1000 1000 1000 1000 1000 1000 1000 1000 1000 1000 1000 1000 1000 1000 1000 1000 1000 1000 1000 1000 1000 1000 1000 1000 1000 1000 1000.01 1000.01 1000.01 1000.01 1000.01 1000.01 1000 1000 1000 1000 1000 1000 1000 1000 1000 1000 1000 1000 1000 1000 1000 1000 1000 1000 1000 1000 1000 1000 1000 1000 1000 1000 1000 1000 1000 1000 1000 1000 1000 1000 1000 1000.01 1000.01 1000.01 1000.01 1000.01 1000.01 1000.01 1000 1000 1000 1000 1000 1000 1000 1000 1000 1000 1000 1000 1000 1000 1000 1000 1000 1000 1000 1000 1000 1000 1000 1000 1000 1000 1000 1000 1000 1000 1000 1000 1000 1000.01 1000.01 1000.01 1000.01 1000.01 1000.01 1000.01 1000.01 1000 1000 1000 1000 1000 1000 1000 1000 1000 1000 1000 1000 1000 1000 1000 1000 1000 1000 1000 1000 1000 1000 1000 1000 1000 1000 1000 1000 1000 1000 1000 1000 1000 1000.01 1000.01 1000.01 1000.01 1000.01 1000.01 1000.01 1000 1000 1000 1000 1000 1000 1000 1000 1000 1000 1000 1000 1000 1000 1000 1000 1000 1000 1000 1000 1000 1000 1000 1000 1000 1000 1000 1000 1000 1000 1000 1000 1000 1000 1000 1000.01 1000.01 1000.01 1000.01 1000.01 1000.01 1000.01 1000 1000 1000 1000 1000 1000 1000 1000 1000 1000 1000 1000 1000 1000 1000 1000 1000 1000 1000 1000 1000 1000 1000 1000 1000 1000 1000 1000 1000 1000 1000 1000 1000 1000.01 1000.01 1000.01 1000.01 1000.01 1000.01 1000.01 1000.01 1000 1000 1000 1000 1000 1000 1000 1000 1000 1000 1000 1000 1000 1000 1000 1000 1000 1000 1000 1000 1000 1000 1000 1000 1000 1000 1000 1000 1000 1000 1000 1000 1000 1000.01 1000.01 1000.01 1000.01 1000.01 1000.01 1000.01 1000 1000 1000 1000 1000 1000 1000 1000 1000 1000 1000 1000 1000 1000 1000 1000 1000 1000 1000 1000 1000 1000 1000 1000 1000 1000 1000 1000 1000 1000 1000 1000 1000 1000 1000 1000.01 1000.01 1000.01 1000.01 1000.01 1000.01 1000 1000 1000 1000 1000 1000 1000 1000 1000 1000 1000 1000 1000 1000 1000 1000 1000 1000 1000 1000 1000 1000 1000 1000 1000 1000 1000 1000 1000 1000 1000 1000 1000 1000 1000 1000.01 1000.01 1000.01 1000.01 1000.01 1000.01 1000.01 1000 1000 1000 1000 1000 1000 1000 1000 1000 1000 1000 1000 1000 1000 1000 1000 1000 1000 1000 1000 1000 1000 1000 1000 1000 1000 1000 1000 1000 1000 1000 1000 1000 1000.01 1000.01 1000.01 1000.01 1000.01 1000.01 1000.01 1000.01 1000 1000 1000 1000 1000 1000 1000 1000 1000 1000 1000 1000 1000 1000 1000 1000 1000 1000 1000 1000 1000 1000 1000 1000 1000 1000 1000 1000 1000 1000 1000 1000 1000 1000.01 1000.01 1000.01 1000.01 1000.01 1000.01 1000.01 1000 1000 1000 1000 1000 1000 1000 1000 1000 1000 1000 1000 1000 1000 1000 1000 1000 1000 1000 1000 1000 1000 1000 1000 1000 1000 1000 1000 1000 1000 1000 1000 1000 1000 1000 1000.01 1000.01 1000.01 1000.01 1000.01 1000.01 1000 1000 1000 1000 1000 1000 1000 1000 1000 1000 1000 1000 1000 1000 1000 1000 1000 1000 1000 1000 1000 1000 1000 1000 1000 1000 1000 1000 1000 1000 1000 1000 1000 1000 1000 1000.01 1000.01 1000.01 1000.01 1000.01 1000.01 1000.01 1000 1000 1000 1000 1000 1000 1000 1000 1000 1000 1000 1000 1000 1000 1000 1000 1000 1000 1000 1000 1000 1000 1000 1000 1000 1000 1000 1000 1000 1000 1000 1000 1000 1000.01 1000.01 1000.01 1000.01 1000.01 1000.01 1000.01 1000.01 1000.01 1000 1000 1000 1000 1000 1000 1000 1000 1000.01 1000 1000 1000 1000 1000 1000 1000 1000 1000 1000 1000 1000 1000 1000 1000 1000 1000 1000 1000 1000 1000 1000 1000.01 1000.01 1000.01 1000.01 1000.01 1000.02 1000.02 1000.02 1000.01 1000.01 1000 1000.01 1000.01 1000 1000 1000.01 1000.01 1000.01 1000 1000.01 1000.01 1000.01 1000.01 1000.01 1000 1000.01 1000.01 1000 1000 1000.01 1000.01 1000 1000.01 1000.01 1000 1000 1000.01 1000.01 1000 1000 1000.01 1000.01 1000.01 1000.02 1000.02 1000.02 1000.02 1000.01 1000.01 1000.02 1000.01 1000.01 1000.01 1000.01 1000.01 1000.01 1000.01 1000.01 1000.01 1000.01 1000.01 1000.01 1000.01 1000.01 1000.01 1000.01 1000.01 1000.01 1000.01 1000.01 1000.01 1000.01 1000.01 1000.01 1000.01 1000.01 1000.01 1000.01 1000.01 1000.01 1000.01 1000.01 1000.01 1000.02 1000.02 1000.01 1000.02 1000.01 1000.01 1000.01 1000.02 1000.01 1000.01 1000.01 1000.01 1000.01 1000.01 1000.01 1000.01 1000.01 1000.01 1000.01 1000.01 1000.01 1000.01 1000.01 1000.01 1000.01 1000.01 1000.01 1000.01 1000.01 1000.01 1000.01 1000.01 1000.01 1000.01 1000.01 1000.01 1000.01 1000.01 1000.01 1000.01 1000.01 1000.02 1000.01 1000.01 1000.02 1000.02 1000.02 1000.02 1000.02 1000.01 1000.01 1000.01 1000.01 1000.01 1000.01 1000.01 1000.01 1000.01 1000.01 1000.01 1000.01 1000.01 1000.01 1000.01 1000.01 1000.01 1000.01 1000.01 1000.01 1000.01 1000.01 1000.01 1000.01 1000.01 1000.01 1000.01 1000.01 1000.01 1000.01 1000.01 1000.01 1000.01 1000.02 1000.02 1000.02 1000.02 1000 1000 1000 1000 1000 1000 1000 1000 1000 1000 1000 1000 1000 1000 1000 1000 1000 1000 1000 1000 1000 1000 1000 1000 1000 1000 1000 1000 1000 1000 1000 1000 1000 1000 1000 1000 1000 1000 1000 1000 1000 1000 1000 1000 1000 1000 1000 1000 1000 1000 1000 1000 1000 1000 1000 1000 1000 1000 1000 1000 1000 1000 1000 1000 1000 1000 1000 1000 1000 1000 1000 1000 1000 1000 1000 1000 1000 1000 1000 1000 1000 1000 1000 1000 1000 1000 1000 1000 1000 1000 1000 1000 1000 1000 1000 1000 1000 1000 1000 1000 1000 1000 1000 1000 1000 1000 1000 1000 1000 1000 1000 1000 1000 1000 1000 1000 1000 1000 1000 1000 1000 1000 1000 1000 1000 1000 1000 1000 1000 1000 1000 1000 1000 1000 1000 1000 1000 1000 1000 1000 1000 1000 1000 1000 1000 1000 1000 1000 1000 1000 1000 1000 1000 1000 1000 1000 1000 1000 1000 1000 1000 1000 1000 1000 1000 1000 1000 1000 1000 1000 1000 1000 1000 1000 1000 1000 1000 1000 1000 1000 1000 1000 1000 1000 1000 1000 1000 1000 1000 1000 1000 1000 1000 1000 1000 1000 1000 1000 1000 1000 1000 1000 1000 1000 1000 1000 1000 1000 1000 1000 1000 1000 1000 1000 1000 1000 1000 1000 1000 1000 1000 1000 1000 1000 1000 1000 1000 1000 1000 1000 1000 1000 1000 1000 1000 1000 1000 1000 1000 1000 1000 1000 1000 1000 1000 1000 1000 1000 1000 1000 1000 1000 1000 1000 1000 1000 1000 1000 1000 1000 1000 1000 1000 1000 1000 1000 1000 1000 1000 1000 1000 1000 1000 1000 1000 1000 1000 1000 1000 1000 1000 1000 1000 1000 1000 1000 1000 1000 1000 1000 1000 1000 1000 1000 1000 1000 1000 1000 1000 1000 1000 1000 1000 1000 1000 1000 1000 1000 1000 1000 1000 1000 1000 1000 1000 1000 1000 1000 1000 1000 1000 1000 1000 1000 1000 1000 1000 1000 
</DataArray>
<DataArray type="Float32" Name="Velocity" NumberOfComponents="3" format="ascii">
0.0043124845 0.006143257 0
0.00042066901 0.0057588336 0
-4.7412264e-05 0.0055206195 0
9.6762742e-05 0.0048158625 0
3.8450995e-05 0.0041253432 0
1.6385384e-05 0.0029135575 0
3.0228568e-07 0.0041353661 0
9.0341535e-07 0.0041353637 0
5.4753775e-07 0.0029211817 0
3.2893552e-06 0.0029196234 0
-9.0148768e-07 0.0041353642 0
9.8588735e-08 0.0041353647 0
3.4278696e-07 0.0041353609 0
2.7219105e-10 0.0050425478 0
-4.2811962e-07 0.0041353633 0
7.5062496e-07 0.0041353647 0
-3.9831693e-08 0.0041353647 0
-7.1539699e-07 0.0041353693 0
1.1741079e-06 0.0041353647 0
6.574013e-07 0.0029133062 0
9.3125969e-08 0.0041353642 0
4.4025049e-07 0.0041353684 0
-7.4095578e-07 0.0029115786 0
6.0088882e-07 0.0029115786 0
-5.2665428e-07 0.0041353647 0
9.085079e-08 0.0041353637 0
4.5133676e-15 0.002913309 0
-9.085079e-08 0.0041353637 0
5.2665428e-07 0.0041353647 0
-6.0090326e-07 0.0029115786 0
1.082844e-07 0.00291158 0
-5.8460716e-07 0.0041353656 0
5.8701806e-07 0.0041353656 0
-3.9848992e-06 0.0029116031 0
-8.3089691e-07 0.0029115789 0
-1.3158316e-05 0.0041353651 0
-7.9533726e-05 0.0041277884 0
-0.00015892119 0.0029128164 0
-0.00082727394 0.0041386588 0
-0.00037658639 0.003919112 0
-0.0045763566 0.0043863333 0
0.004096387 0.0011017551 0
0.00083965302 0.0011560434 0
0.00024431627 0.00084666139 0
0.00022899825 0.00090798689 0
8.0029269e-05 0.0011355785 0
-1.4452262e-07 0.00084061833 0
-1.9857205e-06 0.0011486389 0
1.8562559e-06 0.0011486381 0
-7.8336251e-07 0.0010213676 0
2.5347805e-07 0.0010211752 0
-5.6442627e-07 0.0011486416 0
2.1109236e-06 0.0011487177 0
1.746111e-07 0.0011487157 0
-6.1935214e-07 0.0014134754 0
-5.4753076e-07 0.0011487167 0
-1.6772201e-07 0.0011487177 0
-3.4991248e-07 0.0011487177 0
-1.203016e-06 0.001148719 0
4.6952795e-07 0.0011486304 0
-4.9036673e-09 0.00084072124 0
1.9361971e-06 0.0011486304 0
-2.0909945e-06 0.0011486328 0
-9.3525296e-07 0.0010213231 0
9.259274e-07 0.0010213231 0
2.0677087e-06 0.0011486324 0
-1.9717415e-06 0.0011486302 0
6.1845636e-15 0.00084066793 0
1.9717415e-06 0.0011486302 0
-2.0677087e-06 0.0011486324 0
-9.259274e-07 0.0010213231 0
9.4474757e-07 0.001021322 0
2.1209103e-06 0.0011486345 0
-2.0058349e-06 0.0011486395 0
-8.9104799e-07 0.0010212952 0
1.0324229e-06 0.0010213183 0
-6.9158159e-06 0.0011486453 0
-8.1906015e-05 0.0011432414 0
-0.00024667638 0.00082863512 0
-0.00040162023 0.00062409468 0
-0.00076182227 0.00076572987 0
-0.0038172489 0.0003279176 0
0.0037760371 0.00051377376 0
0.0007243568 0.00046843718 0
0.00051680865 0.00026286321 0
0.00035873699 0.00013507038 0
5.7854606e-05 0.0001560698 0
1.0037906e-05 0.00015767344 0
7.0124483e-06 0.00015662014 0
-1.8050608e-06 0.00015649077 0
3.2397929e-06 0.00016745213 0
1.8281839e-06 0.00016760167 0
3.2143962e-06 0.00015636116 0
2.0277682e-06 0.00015598086 0
2.1927672e-06 0.00015592566 0
1.3875967e-06 0.00016137189 0
-7.2159011e-08 0.00015596583 0
7.7102243e-07 0.00015598093 0
1.7552503e-06 0.00015598095 0
-1.5092353e-06 0.00015598102 0
5.0041149e-07 0.0001560766 0
5.4022559e-07 0.00015852645 0
-2.8630932e-06 0.00015606949 0
-8.8656844e-07 0.00015613582 0
6.802432e-07 0.00016769081 0
1.9770184e-07 0.00016770183 0
1.7671642e-06 0.00015612479 0
4.0376861e-07 0.00015606737 0
-1.9718671e-15 0.00015858619 0
-4.0376861e-07 0.00015606737 0
-1.7671642e-06 0.00015612479 0
-1.9770184e-07 0.00016770183 0
-4.493857e-06 0.00016759582 0
-4.2498832e-06 0.00015622856 0
-6.0355333e-06 0.00015652594 0
2.1425876e-08 0.00016728089 0
-4.6381456e-06 0.00016723439 0
1.020358e-06 0.0001565866 0
-6.6601315e-05 0.0001564798 0
-0.00035249596 0.00017621234 0
-0.00036665803 0.00036468467 0
-0.00058033323 0.00046713688 0
-0.0039872392 0.00073750317 0
0.0041850973 0.0002871913 0
0.00094439049 0.00023072142 0
0.00038482941 0.0001323311 0
0.00012448216 6.7013927e-05 0
4.9425817e-05 9.520325e-05 0
4.839078e-06 2.3226754e-05 0
3.1468646e-06 0.0001011995 0
2.6052528e-06 0.00010114087 0
8.4968593e-07 2.4470817e-05 0
-5.1445511e-07 2.4472753e-05 0
1.703412e-08 0.00010112923 0
-1.3003964e-07 0.00010112886 0
-9.0358822e-07 0.00010110916 0
-5.8770644e-07 9.8655226e-05 0
-3.3305156e-07 0.00010110198 0
3.9919962e-07 0.00010112888 0
4.5241879e-07 0.00010112888 0
2.0275471e-07 0.00010112797 0
5.1878493e-07 0.0001011263 0
6.3888842e-07 2.3370007e-05 0
4.5213324e-07 0.00010113257 0
3.9677175e-07 0.00010112969 0
1.9036865e-07 2.4396866e-05 0
-1.9151084e-07 2.4396923e-05 0
-4.014438e-07 0.00010112963 0
2.559948e-08 0.00010112967 0
-2.7212009e-15 2.3379636e-05 0
-2.559948e-08 0.00010112967 0
4.014438e-07 0.00010112963 0
1.9151079e-07 2.4396923e-05 0
-1.8908293e-07 2.4396655e-05 0
1.3846019e-07 0.00010112959 0
-1.3206426e-07 0.0001011302 0
1.8110333e-07 2.4411807e-05 0
-8.5528436e-06 2.4311899e-05 0
-1.1687804e-05 0.00010121494 0
-6.8527916e-05 8.0638092e-05 0
-0.00019397738 0.00011128748 0
-0.00013245706 0.00031245002 0
-0.0010582712 0.000213295 0
-0.0041340105 0.00027371498 0
0.0041942992 0.00033185096 0
0.001043385 0.00010124581 0
0.0002446922 0.0001200041 0
0.0001752434 0.0001125509 0
4.4661931e-05 2.5616418e-05 0
7.3007573e-07 2.2559865e-07 0
3.2867848e-07 2.5936279e-05 0
2.584442e-07 2.5935364e-05 0
7.6567609e-08 2.2929066e-07 0
-5.0439195e-07 2.2866193e-07 0
-2.7174178e-07 2.5935971e-05 0
-4.0600762e-07 2.5935309e-05 0
1.0391861e-06 2.5935162e-05 0
4.0205186e-11 8.6542968e-05 0
-1.0406309e-06 2.5935191e-05 0
-4.9742376e-08 2.593532e-05 0
2.9140705e-07 2.5935309e-05 0
4.5811288e-07 2.5935329e-05 0
-6.7872215e-09 2.5935873e-05 0
-6.1508302e-08 2.2687399e-07 0
2.0202859e-07 2.5936068e-05 0
-3.0025863e-08 2.5935789e-05 0
3.6866874e-07 2.2880117e-07 0
-3.6866874e-07 2.2880133e-07 0
2.9975425e-08 2.5935749e-05 0
-2.0531067e-07 2.5936057e-05 0
9.8054895e-16 2.2679191e-07 0
2.0531067e-07 2.5936057e-05 0
-2.9975425e-08 2.5935749e-05 0
3.6866874e-07 2.2880133e-07 0
-3.6866891e-07 2.2880103e-07 0
2.9370145e-08 2.5935758e-05 0
-2.9370145e-08 2.5935758e-05 0
3.6859942e-07 2.2880708e-07 0
-5.9958074e-07 2.2833967e-07 0
-1.9302945e-06 2.5935406e-05 0
-4.2962551e-05 4.7667429e-05 0
-8.6790475e-05 5.8236554e-05 0
-0.00015771393 5.7207653e-05 0
-0.0011376608 8.8309826e-05 0
-0.0041098855 0.00012531715 0
0.0030159319 0.00015911247 0
0.00093069457 0.00023007696 0
0.00026821633 0.00015406216 0
2.6679498e-05 7.3438307e-05 0
2.1835545e-05 9.1930661e-07 0
7.1874155e-07 3.5048252e-11 0
-4.4033577e-09 7.4636114e-07 0
4.7726907e-09 7.4636068e-07 0
-5.6386046e-16 9.6338472e-11 0
5.8643209e-16 9.6194989e-11 0
-4.7695909e-09 7.4636085e-07 0
4.7367403e-09 7.4636068e-07 0
-1.4558702e-07 7.4629412e-07 0
0 1.7538674e-05 0
1.4558702e-07 7.4629412e-07 0
-4.7366666e-09 7.4636068e-07 0
4.7724522e-09 7.4636068e-07 0
-4.7756994e-09 7.4636068e-07 0
4.7726711e-09 7.4636074e-07 0
0 9.5402186e-11 0
-4.7721067e-09 7.4636097e-07 0
4.7721067e-09 7.4636097e-07 0
-3.0625482e-16 9.6132498e-11 0
3.0625509e-16 9.6132616e-11 0
-4.7721067e-09 7.4636097e-07 0
4.7721067e-09 7.4636097e-07 0
0 9.5388183e-11 0
-4.7721067e-09 7.4636097e-07 0
4.7721067e-09 7.4636097e-07 0
-3.0625509e-16 9.6132616e-11 0
3.0625461e-16 9.6132449e-11 0
-4.7721067e-09 7.4636097e-07 0
4.7721067e-09 7.4636097e-07 0
-3.0626139e-16 9.6133691e-11 0
4.4276765e-16 9.6005058e-11 0
-4.8519664e-09 7.463608e-07 0
-2.1622839e-07 1.1612016e-06 0
-2.4336025e-05 7.0760375e-06 0
-0.00016755899 1.2274571e-05 0
-0.0010207893 2.3833303e-07 0
-0.002920283 1.8547151e-05 0
0.0041348855 9.6462127e-06 0
0.001147959 2.3786306e-06 0
0.00015629719 2.6963629e-05 0
9.8280601e-05 1.0498246e-05 0
2.7874155e-05 2.4669894e-06 0
7.5683431e-07 -4.7803992e-09 0
-4.3889115e-09 -4.3891202e-09 0
4.7746509e-09 -4.3891202e-09 0
0 -4.7746509e-09 0
0 -4.7746509e-09 0
-4.7746509e-09 -4.3891202e-09 0
4.7746509e-09 -4.3891202e-09 0
-4.7746505e-09 -4.3891517e-09 0
0 2.8436122e-07 0
4.7746505e-09 -4.3891517e-09 0
-4.7746509e-09 -4.3891202e-09 0
4.7746509e-09 -4.3891202e-09 0
-4.7746509e-09 -4.3891202e-09 0
4.7746509e-09 -4.3891202e-09 0
0 -4.7746509e-09 0
-4.7746562e-09 -4.3891202e-09 0
4.7746562e-09 -4.3891202e-09 0
0 -4.7746509e-09 0
0 -4.7746509e-09 0
-4.7746562e-09 -4.3891202e-09 0
4.7746562e-09 -4.3891202e-09 0
0 -4.7746509e-09 0
-4.7746562e-09 -4.3891202e-09 0
4.7746562e-09 -4.3891202e-09 0
0 -4.7746509e-09 0
0 -4.7746509e-09 0
-4.7746562e-09 -4.3891202e-09 0
4.7746562e-09 -4.3891202e-09 0
0 -4.7746509e-09 0
-3.03715e-10 -4.7746509e-09 0
-7.5114139e-07 -4.3906585e-09 0
-2.5927042e-05 3.2869585e-07 0
-0.00010121844 2.9463008e-06 0
-0.00015668249 9.5803362e-06 0
-0.001148621 -1.9923223e-06 0
-0.0041353591 2.9738717e-07 0
0.0041353633 4.6759619e-06 0
0.001148639 4.7543017e-06 0
0.0001564508 1.1672917e-06 0
0.00010117048 5.470195e-06 0
2.5936039e-05 4.6757347e-07 0
7.4636102e-07 4.7699222e-09 0
-4.3891202e-09 4.7746509e-09 0
4.7746509e-09 4.7746509e-09 0
0 4.7746509e-09 0
0 4.7746509e-09 0
-4.7746509e-09 4.7746509e-09 0
4.7746509e-09 4.7746509e-09 0
-4.7746509e-09 4.7746509e-09 0
0 4.8568842e-09 0
4.7746509e-09 4.7746509e-09 0
-4.7746509e-09 4.7746509e-09 0
4.7746509e-09 4.7746509e-09 0
-4.7746509e-09 4.7746509e-09 0
4.7746509e-09 4.7746509e-09 0
0 4.7746509e-09 0
-4.7746562e-09 4.7746509e-09 0
4.7746562e-09 4.7746509e-09 0
0 4.7746509e-09 0
0 4.7746509e-09 0
-4.7746562e-09 4.7746509e-09 0