<?xml version="1.0" ?>

<VTKFile type="UnstructuredGrid" version="0.1" byte_order="BigEndian">

<UnstructuredGrid>

<Piece NumberOfPoints= " 2009 " NumberOfCells=" 2009 ">

<PointData Scalars="Pressure" Vectors="Velocity">

<DataArray type="Float32" Name="Pressure" format="ascii">

10.4073 18.6693 20.3862 13.9481 7.40308 10.3 7.51037 7.51037 10.9438 10.9438 7.51037 7.51037 7.51037 6.97391 7.51037 7.51037 7.51037 7.51037 7.51037 10.1927 7.51037 7.51037 10.9438 10.9438 7.51037 7.51037 10.3 7.51037 7.51037 10.9438 10.9438 7.51037 7.51037 10.9438 10.9438 7.51037 7.83225 21.1373 17.8109 14.27 15.8795 21.3519 15.8795 18.8839 15.2357 5.47181 7.61767 5.47181 5.47181 8.04684 8.04684 5.47181 5.47181 5.47181 7.40308 5.47181 5.47181 5.47181 5.47181 5.47181 7.61767 5.47181 5.47181 8.04684 8.04684 5.47181 5.47181 7.61767 5.47181 5.47181 8.04684 8.04684 5.47181 5.47181 8.04684 8.04684 5.47181 5.68639 16.6306 15.5576 10.4073 19.8497 21.3519 15.0211 21.5665 16.5233 5.79368 7.93955 5.47181 5.47181 8.58331 8.58331 5.47181 5.47181 5.47181 7.61767 5.47181 5.47181 5.47181 5.47181 5.47181 7.93955 5.47181 5.47181 8.58331 8.58331 5.47181 5.47181 7.93955 5.47181 5.47181 8.58331 8.58331 5.47181 5.47181 8.58331 8.58331 5.47181 5.5791 18.0255 17.489 13.197 20.0643 13.5189 5.14993 5.14993 11.4803 7.29579 0 7.18849 7.18849 0 0 7.18849 7.18849 7.18849 2.03849 7.18849 7.18849 7.18849 7.18849 7.18849 0 7.18849 7.18849 0 0 7.18849 7.18849 0 7.18849 7.18849 0 0 7.18849 7.18849 0 0 7.18849 7.72496 16.8452 14.8065 15.343 17.1671 13.8408 16.5233 13.7335 13.4116 0 0 0 0 0 0 0 0 0 5.04264 0 0 0 0 0 0 0 0 0 0 0 0 0 0 0 0 0 0 0 0 0 0 0 7.29579 5.79368 5.5791 7.61767 14.6992 11.9095 11.2657 3.54056 0 0 0 0 0 0 0 0 0 0 0 0 0 0 0 0 0 0 0 0 0 0 0 0 0 0 0 0 0 0 0 0 0 0 8.58331 8.04684 11.2657 7.51037 5.47181 5.47181 7.18849 0 0 0 0 0 0 0 0 0 0 0 0 0 0 0 0 0 0 0 0 0 0 0 0 0 0 0 0 0 0 0 0 0 7.18849 5.47181 5.47181 7.51037 7.51037 5.47181 5.47181 7.18849 0 0 0 0 0 0 0 0 0 0 0 0 0 0 0 0 0 0 0 0 0 0 0 0 0 0 0 0 0 0 0 0 0 7.18849 5.47181 5.47181 7.51037 10.9438 8.04684 8.58331 0 0 0 0 0 0 0 0 0 0 0 0 0 0 0 0 0 0 0 0 0 0 0 0 0 0 0 0 0 0 0 0 0 0 0 8.58331 8.04684 10.9438 10.9438 8.04684 8.58331 0 0 0 0 0 0 0 0 0 0 0 0 0 0 0 0 0 0 0 0 0 0 0 0 0 0 0 0 0 0 0 0 0 0 0 8.58331 8.04684 10.9438 7.51037 5.47181 5.47181 7.18849 0 0 0 0 0 0 0 0 0 0 0 0 0 0 0 0 0 0 0 0 0 0 0 0 0 0 0 0 0 0 0 0 0 7.18849 5.47181 5.47181 7.51037 7.51037 5.47181 5.47181 7.18849 0 0 0 0 0 0 0 0 0 0 0 0 0 0 0 0 0 0 0 0 0 0 0 0 0 0 0 0 0 0 0 0 0 7.18849 5.47181 5.47181 7.51037 7.51037 5.47181 5.47181 7.18849 0 0 0 0 0 0 0 0 0 0 0 0 0 0 0 0 0 0 0 0 0 0 0 0 0 0 0 0 0 0 0 0 0 7.18849 5.47181 5.47181 7.51037 6.97391 7.40308 7.61767 2.03849 5.04264 0 0 0 0 0 0 0 0 0 0 0 0 0 0 0 0 0 0 0 0 0 0 0 0 0 0 0 0 0 0 0 5.04264 2.03849 7.61767 7.40308 6.97391 7.51037 5.47181 5.47181 7.18849 0 0 0 0 0 0 0 0 0 0 0 0 0 0 0 0 0 0 0 0 0 0 0 0 0 0 0 0 0 0 0 0 0 7.18849 5.47181 5.47181 7.51037 7.51037 5.47181 5.47181 7.18849 0 0 0 0 0 0 0 0 0 0 0 0 0 0 0 0 0 0 0 0 0 0 0 0 0 0 0 0 0 0 0 0 0 7.18849 5.47181 5.47181 7.51037 7.51037 5.47181 5.47181 7.18849 0 0 0 0 0 0 0 0 0 0 0 0 0 0 0 0 0 0 0 0 0 0 0 0 0 0 0 0 0 0 0 0 0 7.18849 5.47181 5.47181 7.51037 7.51037 5.47181 5.47181 7.18849 0 0 0 0 0 0 0 0 0 0 0 0 0 0 0 0 0 0 0 0 0 0 0 0 0 0 0 0 0 0 0 0 0 7.18849 5.47181 5.47181 7.51037 7.51037 5.47181 5.47181 7.18849 0 0 0 0 0 0 0 0 0 0 0 0 0 0 0 0 0 0 0 0 0 0 0 0 0 0 0 0 0 0 0 0 0 7.18849 5.47181 5.47181 7.51037 10.1927 7.61767 7.93955 0 0 0 0 0 0 0 0 0 0 0 0 0 0 0 0 0 0 0 0 0 0 0 0 0 0 0 0 0 0 0 0 0 0 0 7.93955 7.61767 10.1927 7.51037 5.47181 5.47181 7.18849 0 0 0 0 0 0 0 0 0 0 0 0 0 0 0 0 0 0 0 0 0 0 0 0 0 0 0 0 0 0 0 0 0 7.18849 5.47181 5.47181 7.51037 7.51037 5.47181 5.47181 7.18849 0 0 0 0 0 0 0 0 0 0 0 0 0 0 0 0 0 0 0 0 0 0 0 0 0 0 0 0 0 0 0 0 0 7.18849 5.47181 5.47181 7.51037 10.9438 8.04684 8.58331 0 0 0 0 0 0 0 0 0 0 0 0 0 0 0 0 0 0 0 0 0 0 0 0 0 0 0 0 0 0 0 0 0 0 0 8.58331 8.04684 10.9438 10.9438 8.04684 8.58331 0 0 0 0 0 0 0 0 0 0 0 0 0 0 0 0 0 0 0 0 0 0 0 0 0 0 0 0 0 0 0 0 0 0 0 8.58331 8.04684 10.9438 7.51037 5.47181 5.47181 7.18849 0 0 0 0 0 0 0 0 0 0 0 0 0 0 0 0 0 0 0 0 0 0 0 0 0 0 0 0 0 0 0 0 0 7.18849 5.47181 5.47181 7.51037 7.51037 5.47181 5.47181 7.18849 0 0 0 0 0 0 0 0 0 0 0 0 0 0 0 0 0 0 0 0 0 0 0 0 0 0 0 0 0 0 0 0 0 7.18849 5.47181 5.47181 7.51037 10.3 7.61767 7.93955 0 0 0 0 0 0 0 0 0 0 0 0 0 0 0 0 0 0 0 0 0 0 0 0 0 0 0 0 0 0 0 0 0 0 0 7.93955 7.61767 10.3 7.51037 5.47181 5.47181 7.18849 0 0 0 0 0 0 0 0 0 0 0 0 0 0 0 0 0 0 0 0 0 0 0 0 0 0 0 0 0 0 0 0 0 7.18849 5.47181 5.47181 7.51037 7.51037 5.47181 5.47181 7.18849 0 0 0 0 0 0 0 0 0 0 0 0 0 0 0 0 0 0 0 0 0 0 0 0 0 0 0 0 0 0 0 0 0 7.18849 5.47181 5.47181 7.51037 10.9438 8.04684 8.58331 0 0 0 0 0 0 0 0 0 0 0 0 0 0 0 0 0 0 0 0 0 0 0 0 0 0 0 0 0 0 0 0 0 0 0 8.58331 8.04684 10.9438 10.9438 8.04684 8.58331 0 0 0 0 0 0 0 0 0 0 0 0 0 0 0 0 0 0 0 0 0 0 0 0 0 0 0 0 0 0 0 0 0 0 0 8.58331 8.04684 10.9438 7.51037 5.47181 5.47181 7.18849 0 0 0 0 0 0 0 0 0 0 0 0 0 0 0 0 0 0 0 0 0 0 0 0 0 0 0 0 0 0 0 0 0 7.18849 5.47181 5.47181 7.51037 7.51037 5.47181 5.47181 7.18849 0 0 0 0 0 0 0 0 0 0 0 0 0 0 0 0 0 0 0 0 0 0 0 0 0 0 0 0 0 0 0 0 0 7.18849 5.47181 5.47181 7.51037 10.9438 8.04684 8.58331 0 0 0 0 0 0 0 0 0 0 0 0 0 0 0 0 0 0 0 0 0 0 0 0 0 0 0 0 0 0 0 0 0 0 0 8.58331 8.04684 10.9438 10.9438 8.04684 8.58331 0 0 0 0 0 0 0 0 0 0 0 0 0 0 0 0 0 0 0 0 0 0 0 0 0 0 0 0 0 0 0 0 0 0 0 8.58331 8.04684 10.9438 7.51037 5.47181 5.47181 7.18849 0 0 0 0 0 0 0 0 0 0 0 0 0 0 0 0 0 0 0 0 0 0 0 0 0 0 0 0 0 0 0 0 0 7.18849 5.47181 5.47181 7.51037 7.83225 5.68639 5.5791 7.72496 0 0 0 0 0 0 0 0 0 5.04264 0 0 0 0 0 0 0 0 0 0 0 0 0 0 0 0 0 0 0 0 0 0 0 7.61767 5.5791 5.68639 7.72496 21.1373 16.6306 18.0255 16.8452 7.29579 0 7.18849 7.18849 0 0 7.18849 7.18849 7.18849 2.03849 7.18849 7.18849 7.18849 7.18849 7.18849 0 7.18849 7.18849 0 0 7.18849 7.18849 0 7.18849 7.18849 0 0 7.18849 7.18849 0 0 7.18849 7.61767 9.54897 18.1328 16.8452 21.1373 17.8109 15.5576 17.489 14.8065 5.79368 8.58331 5.47181 5.47181 8.58331 8.58331 5.47181 5.47181 5.47181 7.61767 5.47181 5.47181 5.47181 5.47181 5.47181 7.93955 5.47181 5.47181 8.58331 8.58331 5.47181 5.47181 7.93955 5.47181 5.47181 8.58331 8.58331 5.47181 5.47181 8.58331 8.58331 5.47181 5.5791 18.1328 17.0598 14.9138 18.6693 14.27 10.4073 13.197 15.343 5.5791 8.04684 5.47181 5.47181 8.04684 8.04684 5.47181 5.47181 5.47181 7.40308 5.47181 5.47181 5.47181 5.47181 5.47181 7.61767 5.47181 5.47181 8.04684 8.04684 5.47181 5.47181 7.61767 5.47181 5.47181 8.04684 8.04684 5.47181 5.47181 8.04684 8.04684 5.47181 5.68639 16.8452 14.9138 10.4073 19.7424 15.8795 19.8497 20.0643 17.1671 7.61767 11.2657 7.51037 7.51037 10.9438 10.9438 7.51037 7.51037 7.51037 6.97391 7.51037 7.51037 7.51037 7.51037 7.51037 10.1927 7.51037 7.51037 10.9438 10.9438 7.51037 7.51037 10.3 7.51037 7.51037 10.9438 10.9438 7.51037 7.51037 10.9438 10.9438 7.51037 7.72496 21.1373 18.6693 19.7424 9.97815 0.1 0.1 0.1 0.1 0.1 0.1 0.1 0.1 0.1 0.1 0.1 0.1 0.1 0.1 0.1 0.1 0.1 0.1 0.1 0.1 0.1 0.1 0.1 0.1 0.1 0.1 0.1 0.1 0.1 0.1 0.1 0.1 0.1 0.1 0.1 0.1 0.1 0.1 0.1 0.1 0.1 0.1 0.1 0.1 0.1 0.1 0.1 0.1 0.1 0.1 0.1 0.1 0.1 0.1 0.1 0.1 0.1 0.1 0.1 0.1 0.1 0.1 0.1 0.1 0.1 0.1 0.1 0.1 0.1 0.1 0.1 0.1 0.1 0.1 0.1 0.1 0.1 0.1 0.1 0.1 0.1 0.1 0.1 0.1 0.1 0.1 0.1 0.1 0.1 0.1 0.1 0.1 0.1 0.1 0.1 0.1 0.1 0.1 0.1 0.1 0.1 0.1 0.1 0.1 0.1 0.1 0.1 0.1 0.1 0.1 0.1 0.1 0.1 0.1 0.1 0.1 0.1 0.1 0.1 0.1 0.1 0.1 0.1 0.1 0.1 0.1 0.1 0.1 0.1 0.1 0.1 0.1 0.1 0.1 0.1 0.1 0.1 0.1 0.1 0.1 0.1 0.1 0.1 0.1 0.1 0.1 0.1 0.1 0.1 0.1 0.1 0.1 0.1 0.1 0.1 0.1 0.1 0.1 0.1 0.1 0.1 0.1 0.1 0.1 0.1 0.1 0.1 0.1 0.1 0.1 0.1 0.1 0.1 0.1 0.1 0.1 0.1 0.1 0.1 0.1 0.1 0.1 0.1 0.1 0.1 0.1 0.1 0.1 0.1 0.1 0.1 0.1 0.1 0.1 0.1 0.1 0.1 0.1 0.1 0.1 0.1 0.1 0.1 0.1 0.1 0.1 0.1 0.1 0.1 0.1 0.1 0.1 0.1 0.1 0.1 0.1 0.1 0.1 0.1 0.1 0.1 0.1 0.1 0.1 0.1 0.1 0.1 0.1 0.1 0.1 0.1 0.1 0.1 0.1 0.1 0.1 0.1 0.1 0.1 0.1 0.1 0.1 0.1 0.1 0.1 0.1 0.1 0.1 0.1 0.1 0.1 0.1 0.1 0.1 0.1 0.1 0.1 0.1 0.1 0.1 0.1 0.1 0.1 0.1 0.1 0.1 0.1 0.1 0.1 0.1 0.1 0.1 0.1 0.1 0.1 0.1 0.1 0.1 0.1 0.1 0.1 0.1 0.1 0.1 0.1 0.1 0.1 0.1 0.1 0.1 0.1 0.1 0.1 0.1 0.1 0.1 0.1 0.1 0.1 0.1 0.1 0.1 0.1 0.1 0.1 0.1 0.1 0.1 0.1 0.1 0.1 0.1 0.1 0.1 0.1 0.1 0.1 0.1 0.1 0.1 0.1 0.1 0.1 0.1 0.1 0.1 0.1 0.1 
</DataArray>

<DataArray type="Float32" Name="Density" format="ascii">
1000.01 1000.02 1000.02 1000.02 1000.01 1000.01 1000.01 1000.01 1000.01 1000.01 1000.01 1000.01 1000.01 1000.01 1000.01 1000.01 1000.01 1000.01 1000.01 1000.01 1000.01 1000.01 1000.01 1000.01 1000.01 1000.01 1000.01 1000.01 1000.01 1000.01 1000.01 1000.01 1000.01 1000.01 1000.01 1000.01 1000.01 1000.02 1000.02 1000.02 1000.02 1000.02 1000.02 1000.02 1000.02 1000.01 1000.01 1000.01 1000.01 1000.01 1000.01 1000.01 1000.01 1000.01 1000.01 1000.01 1000.01 1000.01 1000.01 1000.01 1000.01 1000.01 1000.01 1000.01 1000.01 1000.01 1000.01 1000.01 1000.01 1000.01 1000.01 1000.01 1000.01 1000.01 1000.01 1000.01 1000.01 1000.01 1000.02 1000.02 1000.01 1000.02 1000.02 1000.02 1000.02 1000.02 1000.01 1000.01 1000.01 1000.01 1000.01 1000.01 1000.01 1000.01 1000.01 1000.01 1000.01 1000.01 1000.01 1000.01 1000.01 1000.01 1000.01 1000.01 1000.01 1000.01 1000.01 1000.01 1000.01 1000.01 1000.01 1000.01 1000.01 1000.01 1000.01 1000.01 1000.01 1000.01 1000.01 1000.02 1000.02 1000.01 1000.02 1000.02 1000.01 1000.01 1000.01 1000.01 1000 1000.01 1000.01 1000 1000 1000.01 1000.01 1000.01 1000 1000.01 1000.01 1000.01 1000.01 1000.01 1000 1000.01 1000.01 1000 1000 1000.01 1000.01 1000 1000.01 1000.01 1000 1000 1000.01 1000.01 1000 1000 1000.01 1000.01 1000.02 1000.02 1000.02 1000.02 1000.02 1000.02 1000.02 1000.01 1000 1000 1000 1000 1000 1000 1000 1000 1000 1000.01 1000 1000 1000 1000 1000 1000 1000 1000 1000 1000 1000 1000 1000 1000 1000 1000 1000 1000 1000 1000 1000 1000 1000 1000.01 1000.01 1000.01 1000.01 1000.02 1000.01 1000.01 1000 1000 1000 1000 1000 1000 1000 1000 1000 1000 1000 1000 1000 1000 1000 1000 1000 1000 1000 1000 1000 1000 1000 1000 1000 1000 1000 1000 1000 1000 1000 1000 1000 1000 1000 1000.01 1000.01 1000.01 1000.01 1000.01 1000.01 1000.01 1000 1000 1000 1000 1000 1000 1000 1000 1000 1000 1000 1000 1000 1000 1000 1000 1000 1000 1000 1000 1000 1000 1000 1000 1000 1000 1000 1000 1000 1000 1000 1000 1000 1000.01 1000.01 1000.01 1000.01 1000.01 1000.01 1000.01 1000.01 1000 1000 1000 1000 1000 1000 1000 1000 1000 1000 1000 1000 1000 1000 1000 1000 1000 1000 1000 1000 1000 1000 1000 1000 1000 1000 1000 1000 1000 1000 1000 1000 1000 1000.01 1000.01 1000.01 1000.01 1000.01 1000.01 1000.01 1000 1000 1000 1000 1000 1000 1000 1000 1000 1000 1000 1000 1000 1000 1000 1000 1000 1000 1000 1000 1000 1000 1000 1000 1000 1000 1000 1000 1000 1000 1000 1000 1000 1000 1000 1000.01 1000.01 1000.01 1000.01 1000.01 1000.01 1000 1000 1000 1000 1000 1000 1000 1000 1000 1000 1000 1000 1000 1000 1000 1000 1000 1000 1000 1000 1000 1000 1000 1000 1000 1000 1000 1000 1000 1000 1000 1000 1000 1000 1000 1000.01 1000.01 1000.01 1000.01 1000.01 1000.01 1000.01 1000 1000 1000 1000 1000 1000 1000 1000 1000 1000 1000 1000 1000 1000 1000 1000 1000 1000 1000 1000 1000 1000 1000 1000 1000 1000 1000 1000 1000 1000 1000 1000 1000 1000.01 1000.01 1000.01 1000.01 1000.01 1000.01 1000.01 1000.01 1000 1000 1000 1000 1000 1000 1000 1000 1000 1000 1000 1000 1000 1000 1000 1000 1000 1000 1000 1000 1000 1000 1000 1000 1000 1000 1000 1000 1000 1000 1000 1000 1000 1000.01 1000.01 1000.01 1000.01 1000.01 1000.01 1000.01 1000.01 1000 1000 1000 1000 1000 1000 1000 1000 1000 1000 1000 1000 1000 1000 1000 1000 1000 1000 1000 1000 1000 1000 1000 1000 1000 1000 1000 1000 1000 1000 1000 1000 1000 1000.01 1000.01 1000.01 1000.01 1000.01 1000.01 1000.01 1000 1000.01 1000 1000 1000 1000 1000 1000 1000 1000 1000 1000 1000 1000 1000 1000 1000 1000 1000 1000 1000 1000 1000 1000 1000 1000 1000 1000 1000 1000 1000 1000 1000 1000.01 1000 1000.01 1000.01 1000.01 1000.01 1000.01 1000.01 1000.01 1000 1000 1000 1000 1000 1000 1000 1000 1000 1000 1000 1000 1000 1000 1000 1000 1000 1000 1000 1000 1000 1000 1000 1000 1000 1000 1000 1000 1000 1000 1000 1000 1000 1000.01 1000.01 1000.01 1000.01 1000.01 1000.01 1000.01 1000.01 1000 1000 1000 1000 1000 1000 1000 1000 1000 1000 1000 1000 1000 1000 1000 1000 1000 1000 1000 1000 1000 1000 1000 1000 1000 1000 1000 1000 1000 1000 1000 1000 1000 1000.01 1000.01 1000.01 1000.01 1000.01 1000.01 1000.01 1000.01 1000 1000 1000 1000 1000 1000 1000 1000 1000 1000 1000 1000 1000 1000 1000 1000 1000 1000 1000 1000 1000 1000 1000 1000 1000 1000 1000 1000 1000 1000 1000 1000 1000 1000.01 1000.01 1000.01 1000.01 1000.01 1000.01 1000.01 1000.01 1000 1000 1000 1000 1000 1000 1000 1000 1000 1000 1000 1000 1000 1000 1000 1000 1000 1000 1000 1000 1000 1000 1000 1000 1000 1000 1000 1000 1000 1000 1000 1000 1000 1000.01 1000.01 1000.01 1000.01 1000.01 1000.01 1000.01 1000.01 1000 1000 1000 1000 1000 1000 1000 1000 1000 1000 1000 1000 1000 1000 1000 1000 1000 1000 1000 1000 1000 1000 1000 1000 1000 1000 1000 1000 1000 1000 1000 1000 1000 1000.01 1000.01 1000.01 1000.01 1000.01 1000.01 1000.01 1000 1000 1000 1000 1000 1000 1000 1000 1000 1000 1000 1000 1000 1000 1000 1000 1000 1000 1000 1000 1000 1000 1000 1000 1000 1000 1000 1000 1000 1000 1000 1000 1000 1000 1000 1000.01 1000.01 1000.01 1000.01 1000.01 1000.01 1000.01 1000 1000 1000 1000 1000 1000 1000 1000 1000 1000 1000 1000 1000 1000 1000 1000 1000 1000 1000 1000 1000 1000 1000 1000 1000 1000 1000 1000 1000 1000 1000 1000 1000 1000.01 1000.01 1000.01 1000.01 1000.01 1000.01 1000.01 1000.01 1000 1000 1000 1000 1000 1000 1000 1000 1000 1000 1000 1000 1000 1000 1000 1000 1000 1000 1000 1000 1000 1000 1000 1000 1000 1000 1000 1000 1000 1000 1000 1000 1000 1000.01 1000.01 1000.01 1000.01 1000.01 1000.01 1000.01 1000 1000 1000 1000 1000 1000 1000 1000 1000 1000 1000 1000 1000 1000 1000 1000 1000 1000 1000 1000 1000 1000 1000 1000 1000 1000 1000 1000 1000 1000 1000 1000 1000 1000 1000 1000.01 1000.01 1000.01 1000.01 1000.01 1000.01 1000 1000 1000 1000 1000 1000 1000 1000 1000 1000 1000 1000 1000 1000 1000 1000 1000 1000 1000 1000 1000 1000 1000 1000 1000 1000 1000 1000 1000 1000 1000 1000 1000 1000 1000 1000.01 1000.01 1000.01 1000.01 1000.01 1000.01 1000.01 1000 1000 1000 1000 1000 1000 1000 1000 1000 1000 1000 1000 1000 1000 1000 1000 1000 1000 1000 1000 1000 1000 1000 1000 1000 1000 1000 1000 1000 1000 1000 1000 1000 1000.01 1000.01 1000.01 1000.01 1000.01 1000.01 1000.01 1000.01 1000 1000 1000 1000 1000 1000 1000 1000 1000 1000 1000 1000 1000 1000 1000 1000 1000 1000 1000 1000 1000 1000 1000 1000 1000 1000 1000 1000 1000 1000 1000 1000 1000 1000.01 1000.01 1000.01 1000.01 1000.01 1000.01 1000.01 1000 1000 1000 1000 1000 1000 1000 1000 1000 1000 1000 1000 1000 1000 1000 1000 1000 1000 1000 1000 1000 1000 1000 1000 1000 1000 1000 1000 1000 1000 1000 1000 1000 1000 1000 1000.01 1000.01 1000.01 1000.01 1000.01 1000.01 1000.01 1000 1000 1000 1000 1000 1000 1000 1000 1000 1000 1000 1000 1000 1000 1000 1000 1000 1000 1000 1000 1000 1000 1000 1000 1000 1000 1000 1000 1000 1000 1000 1000 1000 1000.01 1000.01 1000.01 1000.01 1000.01 1000.01 1000.01 1000.01 1000 1000 1000 1000 1000 1000 1000 1000 1000 1000 1000 1000 1000 1000 1000 1000 1000 1000 1000 1000 1000 1000 1000 1000 1000 1000 1000 1000 1000 1000 1000 1000 1000 1000.01 1000.01 1000.01 1000.01 1000.01 1000.01 1000.01 1000 1000 1000 1000 1000 1000 1000 1000 1000 1000 1000 1000 1000 1000 1000 1000 1000 1000 1000 1000 1000 1000 1000 1000 1000 1000 1000 1000 1000 1000 1000 1000 1000 1000 1000 1000.01 1000.01 1000.01 1000.01 1000.01 1000.01 1000 1000 1000 1000 1000 1000 1000 1000 1000 1000 1000 1000 1000 1000 1000 1000 1000 1000 1000 1000 1000 1000 1000 1000 1000 1000 1000 1000 1000 1000 1000 1000 1000 1000 1000 1000.01 1000.01 1000.01 1000.01 1000.01 1000.01 1000.01 1000 1000 1000 1000 1000 1000 1000 1000 1000 1000 1000 1000 1000 1000 1000 1000 1000 1000 1000 1000 1000 1000 1000 1000 1000 1000 1000 1000 1000 1000 1000 1000 1000 1000.01 1000.01 1000.01 1000.01 1000.01 1000.01 1000.01 1000.01 1000 1000 1000 1000 1000 1000 1000 1000 1000 1000 1000 1000 1000 1000 1000 1000 1000 1000 1000 1000 1000 1000 1000 1000 1000 1000 1000 1000 1000 1000 1000 1000 1000 1000.01 1000.01 1000.01 1000.01 1000.01 1000.01 1000.01 1000 1000 1000 1000 1000 1000 1000 1000 1000 1000 1000 1000 1000 1000 1000 1000 1000 1000 1000 1000 1000 1000 1000 1000 1000 1000 1000 1000 1000 1000 1000 1000 1000 1000 1000 1000.01 1000.01 1000.01 1000.01 1000.01 1000.01 1000 1000 1000 1000 1000 1000 1000 1000 1000 1000 1000 1000 1000 1000 1000 1000 1000 1000 1000 1000 1000 1000 1000 1000 1000 1000 1000 1000 1000 1000 1000 1000 1000 1000 1000 1000.01 1000.01 1000.01 1000.01 1000.01 1000.01 1000.01 1000 1000 1000 1000 1000 1000 1000 1000 1000 1000 1000 1000 1000 1000 1000 1000 1000 1000 1000 1000 1000 1000 1000 1000 1000 1000 1000 1000 1000 1000 1000 1000 1000 1000.01 1000.01 1000.01 1000.01 1000.01 1000.01 1000.01 1000.01 1000 1000 1000 1000 1000 1000 1000 1000 1000 1000.01 1000 1000 1000 1000 1000 1000 1000 1000 1000 1000 1000 1000 1000 1000 1000 1000 1000 1000 1000 1000 1000 1000 1000 1000.01 1000.01 1000.01 1000.01 1000.02 1000.02 1000.02 1000.02 1000.01 1000 1000.01 1000.01 1000 1000 1000.01 1000.01 1000.01 1000 1000.01 1000.01 1000.01 1000.01 1000.01 1000 1000.01 1000.01 1000 1000 1000.01 1000.01 1000 1000.01 1000.01 1000 1000 1000.01 1000.01 1000 1000 1000.01 1000.01 1000.01 1000.02 1000.02 1000.02 1000.02 1000.02 1000.02 1000.02 1000.01 1000.01 1000.01 1000.01 1000.01 1000.01 1000.01 1000.01 1000.01 1000.01 1000.01 1000.01 1000.01 1000.01 1000.01 1000.01 1000.01 1000.01 1000.01 1000.01 1000.01 1000.01 1000.01 1000.01 1000.01 1000.01 1000.01 1000.01 1000.01 1000.01 1000.01 1000.01 1000.01 1000.02 1000.02 1000.02 1000.02 1000.02 1000.01 1000.01 1000.02 1000.01 1000.01 1000.01 1000.01 1000.01 1000.01 1000.01 1000.01 1000.01 1000.01 1000.01 1000.01 1000.01 1000.01 1000.01 1000.01 1000.01 1000.01 1000.01 1000.01 1000.01 1000.01 1000.01 1000.01 1000.01 1000.01 1000.01 1000.01 1000.01 1000.01 1000.01 1000.01 1000.01 1000.02 1000.02 1000.01 1000.02 1000.02 1000.02 1000.02 1000.02 1000.01 1000.01 1000.01 1000.01 1000.01 1000.01 1000.01 1000.01 1000.01 1000.01 1000.01 1000.01 1000.01 1000.01 1000.01 1000.01 1000.01 1000.01 1000.01 1000.01 1000.01 1000.01 1000.01 1000.01 1000.01 1000.01 1000.01 1000.01 1000.01 1000.01 1000.01 1000.01 1000.01 1000.02 1000.02 1000.02 1000.01 1000 1000 1000 1000 1000 1000 1000 1000 1000 1000 1000 1000 1000 1000 1000 1000 1000 1000 1000 1000 1000 1000 1000 1000 1000 1000 1000 1000 1000 1000 1000 1000 1000 1000 1000 1000 1000 1000 1000 1000 1000 1000 1000 1000 1000 1000 1000 1000 1000 1000 1000 1000 1000 1000 1000 1000 1000 1000 1000 1000 1000 1000 1000 1000 1000 1000 1000 1000 1000 1000 1000 1000 1000 1000 1000 1000 1000 1000 1000 1000 1000 1000 1000 1000 1000 1000 1000 1000 1000 1000 1000 1000 1000 1000 1000 1000 1000 1000 1000 1000 1000 1000 1000 1000 1000 1000 1000 1000 1000 1000 1000 1000 1000 1000 1000 1000 1000 1000 1000 1000 1000 1000 1000 1000 1000 1000 1000 1000 1000 1000 1000 1000 1000 1000 1000 1000 1000 1000 1000 1000 1000 1000 1000 1000 1000 1000 1000 1000 1000 1000 1000 1000 1000 1000 1000 1000 1000 1000 1000 1000 1000 1000 1000 1000 1000 1000 1000 1000 1000 1000 1000 1000 1000 1000 1000 1000 1000 1000 1000 1000 1000 1000 1000 1000 1000 1000 1000 1000 1000 1000 1000 1000 1000 1000 1000 1000 1000 1000 1000 1000 1000 1000 1000 1000 1000 1000 1000 1000 1000 1000 1000 1000 1000 1000 1000 1000 1000 1000 1000 1000 1000 1000 1000 1000 1000 1000 1000 1000 1000 1000 1000 1000 1000 1000 1000 1000 1000 1000 1000 1000 1000 1000 1000 1000 1000 1000 1000 1000 1000 1000 1000 1000 1000 1000 1000 1000 1000 1000 1000 1000 1000 1000 1000 1000 1000 1000 1000 1000 1000 1000 1000 1000 1000 1000 1000 1000 1000 1000 1000 1000 1000 1000 1000 1000 1000 1000 1000 1000 1000 1000 1000 1000 1000 1000 1000 1000 1000 1000 1000 1000 1000 1000 1000 1000 1000 1000 1000 1000 1000 1000 1000 1000 1000 1000 1000 1000 1000 1000 1000 1000 1000 1000 1000 1000 1000 1000 1000 1000 
</DataArray>
<DataArray type="Float32" Name="Velocity" NumberOfComponents="3" format="ascii">
0.0043120133 0.0061601922 0
0.00057001389 0.0058361329 0
-6.0322262e-05 0.0056649111 0
0.00011540957 0.0049005714 0
6.0554821e-06 0.0041435291 0
7.2071657e-06 0.0029258062 0
6.3129346e-07 0.0041538603 0
1.163108e-06 0.0041538565 0
-5.0547385e-07 0.0029317487 0
2.2694263e-07 0.002930223 0
-1.1071838e-06 0.0041538561 0
7.3030186e-08 0.0041538579 0
5.4615805e-07 0.0041538547 0
2.8326011e-10 0.0050876192 0
4.1357691e-07 0.004153857 0
-3.2320793e-07 0.0041538579 0
-4.3343857e-08 0.0041538579 0
-7.4876944e-08 0.0041538579 0
1.4886473e-06 0.004153851 0
-7.1884443e-07 0.0029259543 0
1.2271167e-07 0.004153857 0
5.8303539e-07 0.0041538598 0
-1.1233637e-06 0.0029222195 0
1.105278e-06 0.0029222199 0
-6.7099558e-07 0.0041538565 0
3.6854942e-07 0.004153857 0
2.6943783e-15 0.0029259527 0
-3.6854942e-07 0.004153857 0
6.7099558e-07 0.0041538565 0
-1.10529e-06 0.0029222199 0
1.1106201e-06 0.0029222197 0
-6.7834407e-07 0.0041538565 0
6.7971865e-07 0.0041538565 0
-1.075e-06 0.0029222192 0
1.2477651e-06 0.0029222164 0
-2.5847964e-06 0.0041538542 0
-6.0368297e-06 0.0041531464 0
-0.00016609021 0.0029281301 0
-0.00076983566 0.004136798 0
-0.00049493986 0.0039286991 0
-0.0045772982 0.0043824711 0
0.0040624202 0.0010948217 0
0.0009002501 0.0012027594 0
0.00030946539 0.00095169916 0
0.00018357653 0.0010861 0
2.7436741e-05 0.0011777671 0
-4.4141323e-08 0.00088105863 0
1.9353317e-06 0.001179451 0
-1.7612476e-06 0.0011794552 0
-7.281343e-07 0.0010688781 0
2.7451028e-07 0.0010687012 0
1.9810584e-06 0.0011794615 0
-3.944015e-07 0.0011794746 0
1.6454868e-07 0.0011794735 0
3.1353963e-08 0.0014206703 0
-4.99186e-07 0.0011794737 0
-1.6918018e-07 0.0011794746 0
-1.6395932e-08 0.0011794746 0
-1.537492e-06 0.001179476 0
4.5353644e-07 0.0011794544 0
-2.4782725e-09 0.00088109 0
1.9650527e-06 0.0011794545 0
-2.1116223e-06 0.0011794558 0
-9.1301126e-07 0.0010688329 0
9.0970087e-07 0.0010688329 0
2.0989371e-06 0.0011794555 0
-1.9834954e-06 0.0011794544 0
6.1845636e-15 0.0008810641 0
1.9834954e-06 0.0011794544 0
-2.0989371e-06 0.0011794555 0
-9.0970087e-07 0.0010688329 0
9.1049168e-07 0.0010688328 0
2.1021119e-06 0.0011794555 0
-2.0946547e-06 0.0011794566 0
-9.0333981e-07 0.0010688322 0
9.4267295e-07 0.0010688318 0
2.1792905e-06 0.0011794586 0
-1.4676753e-05 0.0011788247 0
-0.00019690605 0.00099645671 0
-0.00047136808 0.00070017623 0
-0.0008092944 0.00081162911 0
-0.003848043 0.00045360246 0
0.0038371736 0.00040693762 0
0.00083628035 0.00042374292 0
0.00054273586 0.00023536768 0
0.00024670339 0.00014816296 0
1.7292155e-05 0.00013787144 0
5.1053371e-06 0.00012106008 0
4.7081235e-06 0.00013771358 0
3.9470883e-06 0.00013756078 0
1.3358062e-06 0.00012715734 0
3.3734666e-06 0.00012722495 0
-3.3544356e-07 0.00013747875 0
5.6745773e-07 0.00013737549 0
1.6451233e-06 0.00013736014 0
7.5950894e-08 0.00016983031 0
-5.3987026e-07 0.00013737068 0
-2.0095543e-07 0.00013737549 0
6.9427223e-08 0.00013737549 0
4.1312529e-07 0.00013737555 0
1.5797389e-07 0.00013739969 0
3.4687034e-07 0.00012171919 0
-7.394313e-07 0.00013739716 0
2.9866392e-08 0.00013742046 0
-9.5030168e-07 0.00012704762 0
5.65113e-07 0.00012702963 0
8.2904563e-08 0.0001374381 0
1.3258334e-06 0.00013739803 0
-1.9718671e-15 0.00012174495 0
-1.3258334e-06 0.00013739803 0
-8.2904563e-08 0.0001374381 0
-5.65113e-07 0.00012702963 0
-2.2533129e-06 0.00012695981 0
-7.2688141e-07 0.00013750813 0
-2.5518409e-06 0.00013758263 0
-2.7624844e-06 0.00012688579 0
-3.0700282e-06 0.00012681758 0
-5.463487e-06 0.00013765211 0
-1.1454717e-05 0.00013796684 0
-0.00028335562 0.00013037851 0
-0.00039683198 0.00036713301 0
-0.00064857525 0.00048737464 0
-0.003998959 0.00058935658 0
0.0042055324 0.00030155049 0
0.00096569781 0.00022386975 0
0.00037765229 9.4822033e-05 0
0.00014165083 6.1165694e-05 0
1.7292803e-05 9.0628469e-05 0
1.5312474e-06 7.0213091e-06 0
9.0295174e-07 9.2923969e-05 0
1.1490109e-06 9.2913338e-05 0
4.3785766e-07 7.1615964e-06 0
-5.0405953e-07 7.1629283e-06 0
-1.4285243e-07 9.2911941e-05 0
-1.0490455e-07 9.2911177e-05 0
6.3579745e-07 9.2910755e-05 0
9.2198926e-10 9.2312184e-05 0
-7.2217586e-07 9.291093e-05 0
-3.602544e-07 9.2911228e-05 0
-1.0844663e-07 9.2911177e-05 0
-5.7796878e-08 9.2911134e-05 0
-1.2840614e-08 9.2913862e-05 0
7.3991529e-08 7.0459182e-06 0
4.2125117e-07 9.2914794e-05 0
4.3620767e-07 9.2911854e-05 0
3.6816937e-07 7.1474001e-06 0
-3.6859839e-07 7.1474478e-06 0
-4.3843633e-07 9.2911643e-05 0
1.2055627e-07 9.2912283e-05 0
3.71081e-16 7.0504566e-06 0
-1.2055627e-07 9.2912283e-05 0
4.3843633e-07 9.2911643e-05 0
3.6859814e-07 7.1474478e-06 0
-3.6849914e-07 7.1474105e-06 0
4.6557762e-08 9.291168e-05 0
-4.5769127e-08 9.2911789e-05 0
3.667453e-07 7.1472919e-06 0
-3.4930254e-06 7.1306395e-06 0
-4.2919992e-06 9.2928269e-05 0
-8.9532377e-06 9.31041e-05 0
-0.00020881856 0.00010422159 0
-9.6207557e-05 0.00029543851 0
-0.0011164015 0.0001979334 0
-0.004169147 0.000272807 0
0.0041923369 0.0002704981 0
0.0010768172 0.000212787 0
0.00020216583 0.00019283497 0
0.00017283991 3.939747e-05 0
8.2505821e-06 4.2210527e-06 0
8.9288958e-09 1.6483986e-08 0
-4.8801541e-09 4.2508354e-06 0
4.6523052e-09 4.2508286e-06 0
-2.217464e-13 1.6550354e-08 0
4.1131202e-13 1.6550683e-08 0
-4.6472217e-09 4.2508286e-06 0
4.5619388e-09 4.2508264e-06 0
-1.4561111e-07 4.2507618e-06 0
0 4.803401e-05 0
1.4559515e-07 4.2507622e-06 0
-4.4885504e-09 4.2508264e-06 0
4.7356745e-09 4.2508264e-06 0
-4.8160493e-09 4.2508264e-06 0
4.7194102e-09 4.2508314e-06 0
-1.4421617e-13 1.6497966e-08 0
-4.8200053e-09 4.2508314e-06 0
4.669122e-09 4.2508282e-06 0
-4.9000349e-13 1.6545263e-08 0
4.9000712e-13 1.6545327e-08 0
-4.669122e-09 4.2508277e-06 0
4.7861746e-09 4.2508291e-06 0
0 1.6503563e-08 0
-4.7861746e-09 4.2508291e-06 0
4.669122e-09 4.2508277e-06 0
-4.9000712e-13 1.6545327e-08 0
4.9000626e-13 1.6545314e-08 0
-4.7557163e-09 4.2508277e-06 0
4.7557163e-09 4.2508282e-06 0
-4.9000132e-13 1.654524e-08 0
9.5192886e-13 1.6534399e-08 0
-8.9829033e-09 4.2508373e-06 0
-4.100832e-06 4.2970273e-06 0
-9.1266942e-05 1.3752669e-05 0
-0.00013784868 2.0073938e-05 0
-0.0011779022 3.9592731e-05 0
-0.0041434816 6.2725834e-05 0
0.0029450869 5.3277909e-05 0
0.001063764 4.3805165e-05 0
0.00013806554 4.2598975e-05 0
1.4733717e-05 3.194431e-05 0
6.8422509e-07 4.4376427e-09 0
2.5057709e-10 0 0
-4.7746509e-09 4.9845008e-09 0
4.7746509e-09 4.9844959e-09 0
0 0 0
0 0 0
-4.7746509e-09 4.9844968e-09 0
4.7746509e-09 4.9844942e-09 0
-4.774583e-09 4.9843756e-09 0
0 1.8548002e-06 0
4.774583e-09 4.9843756e-09 0
-4.7746509e-09 4.9844942e-09 0
4.7746509e-09 4.9844942e-09 0
-4.7746509e-09 4.9844942e-09 0
4.7746509e-09 4.9844981e-09 0
0 0 0
-4.7746562e-09 4.9844973e-09 0
4.7746562e-09 4.9844955e-09 0
0 0 0
0 0 0
-4.7746562e-09 4.9844955e-09 0
4.7746562e-09 4.9844968e-09 0
0 0 0
-4.7746562e-09 4.9844968e-09 0
4.7746562e-09 4.9844955e-09 0
0 0 0
0 0 0
-4.7746562e-09 4.9844955e-09 0
4.7746562e-09 4.9844955e-09 0
0 0 0
0 0 0
-4.7749191e-09 4.9844999e-09 0
-6.9004327e-09 5.0076179e-09 0
-7.2287335e-06 1.9557535e-06 0
-0.00012675759 5.2764613e-06 0
-0.0010686447 3.8048961e-07 0
-0.0029299855 8.2290544e-06 0
0.0041538598 6.2081057e-07 0
0.0011793934 4.4164503e-06 0
0.00013776287 5.9996264e-06 0
9.2934446e-05 1.7210932e-06 0
4.2508427e-06 -4.9444426e-09 0
4.9845044e-09 -4.7746509e-09 0
-4.7746509e-09 -4.7746509e-09 0
4.7746509e-09 -4.7746509e-09 0
0 -4.7746509e-09 0
0 -4.7746509e-09 0
-4.7746509e-09 -4.7746509e-09 0
4.7746509e-09 -4.7746509e-09 0
-4.7746509e-09 -4.7746509e-09 0
0 -3.4596668e-09 0
4.7746509e-09 -4.7746509e-09 0
-4.7746509e-09 -4.7746509e-09 0
4.7746509e-09 -4.7746509e-09 0
-4.7746509e-09 -4.7746509e-09 0
4.7746509e-09 -4.7746509e-09 0
0 -4.7746509e-09 0
-4.7746562e-09 -4.7746509e-09 0
4.7746562e-09 -4.7746509e-09 0
0 -4.7746509e-09 0
0 -4.7746509e-09 0
-4.7746562e-09 -4.7746509e-09 0
4.7746562e-09 -4.7746509e-09 0
0 -4.7746509e-09 0
-4.7746562e-09 -4.7746509e-09 0
4.7746562e-09 -4.7746509e-09 0
0 -4.7746509e-09 0
0 -4.7746509e-09 0
-4.7746562e-09 -4.7746509e-09 0
4.7746562e-09 -4.7746509e-09 0
0 -4.7746509e-09 0
0 -4.7746509e-09 0
-9.7143467e-09 -4.7746509e-09 0
-4.2413408e-06 -4.8832116e-09 0
-9.2929891e-05 9.7969632e-07 0
-0.00013774968 4.7289409e-06 0
-0.0011794306 2.444759e-06 0
-0.0041538537 6.3177788e-07 0
0.0041538565 1.1537511e-06 0
0.0011794553 -1.5045789e-06 0
0.00013761554 3.0486408e-06 0
9.291793e-05 1.6396216e-06 0
4.25083e-06 4.6018749e-09 0
4.9844964e-09 4.7746509e-09 0
-4.7746509e-09 4.7746509e-09 0
4.7746509e-09 4.7746509e-09 0
0 4.7746509e-09 0
0 4.7746509e-09 0
-4.7746509e-09 4.7746509e-09 0
4.7746509e-09 4.7746509e-09 0
-4.7746509e-09 4.7746509e-09 0
0 4.7746509e-09 0
4.7746509e-09 4.7746509e-09 0
-4.7746509e-09 4.7746509e-09 0
4.7746509e-09 4.7746509e-09 0
-4.7746509e-09 4.7746509e-09 0
4.7746509e-09 4.7746509e-09 0
0 4.7746509e-09 0
-4.7746562e-09 4.7746509e-09 0
4.7746562e-09 4.7746509e-09 0
0 4.7746509e-09 0
0 4.7746509e-09 0
-4.7746562e-09 4.7746509e-09 0
4.7746562e-09 4.7746509e-09 0
0 4.7746509e-09 0
-4.7746562e-09 4.7746509e-09 0
4.7746562e-09 4.7746509e-09 0
0 4.7746509e-09 0
0 4.7746509e-09 0
-4.7746562e-09 4.7746509e-09 0
4.7746562e-09 4.7746509e-09 0
0 4.7746509e-09 0
0 4.7746509e-09 0
-9.7143387e-09 4.7746509e-09 0
-4.241333e-06 4.6623914e-09 0
-9.2919319e-05 1.0605119e-06 0
-0.00013761986 3.4712461e-06 0
-0.0011794284 -1.7646645e-06 0
-0.0041538505 1.1667022e-06 0
0.0029317483 -5.1663778e-07 0
0.0010688779 -7.308206e-07 0
0.00012710292 2.1164226e-06 0
7.157003e-06 1.2362293e-06 0
1.6548269e-08 -3.3904842e-13 0
0 0 0
-4.7746509e-09 0 0
4.7746509e-09 0 0
0 0 0
0 0 0
-4.7746509e-09 0 0
4.7746509e-09 0 0
-4.7746509e-09 0 0
0 0 0
4.7746509e-09 0 0
-4.7746509e-09 0 0
4.7746509e-09 0 0
-4.7746509e-09 0 0
4.7746509e-09 0 0
0 0 0
-4.7746562e-09 0 0
4.7746562e-09 0 0
0 0 0
0 0 0
-4.7746562e-09 0 0
4.7746562e-09 0 0
0 0 0
-4.7746562e-09 0 0
4.7746562e-09 0 0
0 0 0
0 0 0
-4.7746562e-09 0 0
4.7746562e-09 0 0
0 0 0
0 0 0
-4.7749245e-09 0 0