<?xml version="1.0" ?>

<VTKFile type="UnstructuredGrid" version="0.1" byte_order="BigEndian">

<UnstructuredGrid>

<Piece NumberOfPoints= " 2009 " NumberOfCells=" 2009 ">

<PointData Scalars="Pressure" Vectors="Velocity">

<DataArray type="Float32" Name="Pressure" format="ascii">

14.3773 15.0211 15.5576 14.9138 10.7292 10.1927 6.43744 6.43744 7.61767 7.61767 6.43744 6.43744 6.43744 6.75932 6.43744 6.43744 6.43744 6.43744 6.43744 7.51037 6.43744 6.43744 7.61767 7.61767 6.43744 6.43744 7.61767 6.43744 6.43744 7.61767 7.61767 6.43744 6.43744 7.61767 7.61767 12.7679 13.197 7.40308 14.3773 10.4073 15.2357 19.957 19.4205 17.489 10.4073 20.7081 4.50618 9.22708 9.22708 5.90098 5.90098 9.22708 9.11979 9.11979 7.93955 9.11979 9.11979 9.11979 9.11979 9.22708 4.07701 9.22708 9.22708 6.00827 6.00827 9.22708 9.22708 4.07701 9.22708 9.22708 6.00827 6.00827 9.22708 9.22708 6.00827 6.00827 9.87085 17.2744 6.97391 14.1627 14.6992 8.9052 20.1716 17.2744 18.0255 10.0854 17.9182 7.29579 6.97391 6.97391 6.75932 6.75932 6.86661 6.86661 6.86661 3.86243 6.86661 6.86661 6.86661 6.86661 6.86661 5.36451 6.86661 6.86661 6.75932 6.75932 6.86661 6.86661 5.36451 6.86661 6.86661 6.75932 6.75932 6.97391 6.97391 6.86661 6.75932 8.26143 15.343 7.61767 15.1284 12.7679 16.8452 10.5146 10.0854 8.58331 1.28747 9.22708 10.1927 1.07289 1.07289 7.29579 7.18849 1.07289 1.07289 1.07289 4.50618 1.07289 1.07289 1.07289 1.07289 1.07289 7.18849 1.07289 1.07289 7.18849 7.18849 1.07289 1.07289 7.18849 1.07289 1.07289 7.18849 7.18849 1.07289 1.07289 7.18849 7.18849 3.96972 8.7979 7.40308 8.36873 10.5146 9.22708 11.373 9.76356 8.04684 0.75102 10.0854 2.68223 4.39889 4.39889 0 0 4.39889 4.39889 4.39889 0.107288 4.39889 4.39889 4.39889 4.39889 4.39889 0 4.39889 4.39889 0 0 4.39889 4.39889 0 4.39889 4.39889 0 0 4.39889 4.39889 0 0 9.11979 11.1584 4.1843 14.5919 16.0941 14.9138 15.0211 5.79368 6.75932 14.3773 2.68223 0 2.57494 2.57494 0 0 2.57494 2.57494 2.57494 3.64785 2.57494 2.57494 2.57494 2.57494 2.57494 0 2.57494 2.57494 0 0 2.57494 2.57494 0 2.57494 2.57494 0 0 2.57494 2.57494 0 0 6.00827 3.86243 8.69061 9.11979 7.51037 9.01249 8.9052 15.2357 14.6992 2.89681 6.00827 3.21869 0 0 0 0 0 0 0 3.54056 0 0 0 0 0 0 0 0 0 0 0 0 0 0 0 0 0 0 0 0 0 2.57494 4.39889 1.07289 6.97391 9.22708 6.54473 11.4803 11.4803 10.1927 1.28747 7.61767 5.36451 0 0 0 0 0 0 0 0 0 0 0 0 0 0 0 0 0 0 0 0 0 0 0 0 0 0 0 0 0 2.57494 4.39889 1.07289 6.97391 9.22708 6.43744 7.61767 5.90098 6.75932 7.29579 0 0 0 0 0 0 0 0 0 0 0 0 0 0 0 0 0 0 0 0 0 0 0 0 0 0 0 0 0 0 0 0 0 7.29579 6.75932 5.90098 7.61767 7.61767 5.90098 6.75932 7.29579 0 0 0 0 0 0 0 0 0 0 0 0 0 0 0 0 0 0 0 0 0 0 0 0 0 0 0 0 0 0 0 0 0 7.18849 6.75932 5.90098 7.61767 6.43744 9.22708 6.86661 1.07289 4.39889 2.57494 0 0 0 0 0 0 0 0 0 0 0 0 0 0 0 0 0 0 0 0 0 0 0 0 0 0 0 0 0 2.57494 4.39889 1.07289 6.86661 9.22708 6.43744 6.43744 9.11979 6.86661 1.07289 4.39889 2.57494 0 0 0 0 0 0 0 0 0 0 0 0 0 0 0 0 0 0 0 0 0 0 0 0 0 0 0 0 0 2.57494 4.39889 1.07289 6.86661 9.11979 6.43744 6.43744 9.11979 6.86661 1.07289 4.39889 2.57494 0 0 0 0 0 0 0 0 0 0 0 0 0 0 0 0 0 0 0 0 0 0 0 0 0 0 0 0 0 2.57494 4.39889 1.07289 6.86661 9.11979 6.43744 6.75932 7.93955 3.86243 4.50618 0.107288 3.64785 3.54056 0 0 0 0 0 0 0 0 0 0 0 0 0 0 0 0 0 0 0 0 0 0 0 0 0 0 0 3.54056 3.64785 0.107288 4.50618 3.86243 7.93955 6.75932 6.43744 9.11979 6.86661 1.07289 4.39889 2.57494 0 0 0 0 0 0 0 0 0 0 0 0 0 0 0 0 0 0 0 0 0 0 0 0 0 0 0 0 0 2.57494 4.39889 1.07289 6.86661 9.11979 6.43744 6.43744 9.11979 6.86661 1.07289 4.39889 2.57494 0 0 0 0 0 0 0 0 0 0 0 0 0 0 0 0 0 0 0 0 0 0 0 0 0 0 0 0 0 2.57494 4.39889 1.07289 6.86661 9.11979 6.43744 6.43744 9.11979 6.86661 1.07289 4.39889 2.57494 0 0 0 0 0 0 0 0 0 0 0 0 0 0 0 0 0 0 0 0 0 0 0 0 0 0 0 0 0 2.57494 4.39889 1.07289 6.86661 9.11979 6.43744 6.43744 9.11979 6.86661 1.07289 4.39889 2.57494 0 0 0 0 0 0 0 0 0 0 0 0 0 0 0 0 0 0 0 0 0 0 0 0 0 0 0 0 0 2.57494 4.39889 1.07289 6.86661 9.11979 6.43744 6.43744 9.22708 6.86661 1.07289 4.39889 2.57494 0 0 0 0 0 0 0 0 0 0 0 0 0 0 0 0 0 0 0 0 0 0 0 0 0 0 0 0 0 2.57494 4.39889 1.07289 6.86661 9.22708 6.43744 7.51037 4.07701 5.36451 7.18849 0 0 0 0 0 0 0 0 0 0 0 0 0 0 0 0 0 0 0 0 0 0 0 0 0 0 0 0 0 0 0 0 0 7.18849 5.36451 4.07701 7.51037 6.43744 9.22708 6.86661 1.07289 4.39889 2.57494 0 0 0 0 0 0 0 0 0 0 0 0 0 0 0 0 0 0 0 0 0 0 0 0 0 0 0 0 0 2.57494 4.39889 1.07289 6.86661 9.22708 6.43744 6.43744 9.22708 6.86661 1.07289 4.39889 2.57494 0 0 0 0 0 0 0 0 0 0 0 0 0 0 0 0 0 0 0 0 0 0 0 0 0 0 0 0 0 2.57494 4.39889 1.07289 6.86661 9.22708 6.43744 7.61767 6.00827 6.75932 7.18849 0 0 0 0 0 0 0 0 0 0 0 0 0 0 0 0 0 0 0 0 0 0 0 0 0 0 0 0 0 0 0 0 0 7.18849 6.75932 6.00827 7.61767 7.61767 6.00827 6.75932 7.18849 0 0 0 0 0 0 0 0 0 0 0 0 0 0 0 0 0 0 0 0 0 0 0 0 0 0 0 0 0 0 0 0 0 7.18849 6.75932 6.00827 7.61767 6.43744 9.22708 6.86661 1.07289 4.39889 2.57494 0 0 0 0 0 0 0 0 0 0 0 0 0 0 0 0 0 0 0 0 0 0 0 0 0 0 0 0 0 2.57494 4.39889 1.07289 6.86661 9.22708 6.43744 6.43744 9.22708 6.86661 1.07289 4.39889 2.57494 0 0 0 0 0 0 0 0 0 0 0 0 0 0 0 0 0 0 0 0 0 0 0 0 0 0 0 0 0 2.57494 4.39889 1.07289 6.86661 9.22708 6.43744 7.61767 4.07701 5.36451 7.18849 0 0 0 0 0 0 0 0 0 0 0 0 0 0 0 0 0 0 0 0 0 0 0 0 0 0 0 0 0 0 0 0 0 7.18849 5.36451 4.07701 7.61767 6.43744 9.22708 6.86661 1.07289 4.39889 2.57494 0 0 0 0 0 0 0 0 0 0 0 0 0 0 0 0 0 0 0 0 0 0 0 0 0 0 0 0 0 2.57494 4.39889 1.07289 6.86661 9.22708 6.43744 6.43744 9.22708 6.86661 1.07289 4.39889 2.57494 0 0 0 0 0 0 0 0 0 0 0 0 0 0 0 0 0 0 0 0 0 0 0 0 0 0 0 0 0 2.57494 4.39889 1.07289 6.86661 9.22708 6.43744 7.61767 6.00827 6.75932 7.18849 0 0 0 0 0 0 0 0 0 0 0 0 0 0 0 0 0 0 0 0 0 0 0 0 0 0 0 0 0 0 0 0 0 7.18849 6.75932 6.00827 7.61767 7.61767 6.00827 6.75932 7.18849 0 0 0 0 0 0 0 0 0 0 0 0 0 0 0 0 0 0 0 0 0 0 0 0 0 0 0 0 0 0 0 0 0 7.18849 6.75932 6.00827 7.61767 6.43744 9.22708 6.97391 1.07289 4.39889 2.57494 0 0 0 0 0 0 0 0 0 0 0 0 0 0 0 0 0 0 0 0 0 0 0 0 0 0 0 0 0 2.57494 4.39889 1.07289 6.97391 9.22708 6.43744 6.43744 9.22708 6.97391 1.07289 4.39889 2.57494 0 0 0 0 0 0 0 0 0 0 0 0 0 0 0 0 0 0 0 0 0 0 0 0 0 0 0 0 0 2.57494 4.39889 1.07289 6.97391 9.22708 6.43744 7.61767 6.00827 6.86661 7.18849 0 0 0 0 0 0 0 0 0 0 0 0 0 0 0 0 0 0 0 0 0 0 0 0 0 0 0 0 0 0 0 0 0 7.18849 6.75932 6.00827 7.61767 7.61767 6.00827 6.75932 7.18849 0 0 0 0 0 0 0 0 0 3.54056 0 0 0 0 0 0 0 0 0 0 0 0 0 0 0 0 0 0 0 0 0 0 0 7.18849 6.75932 6.00827 7.61767 12.7679 9.87085 8.26143 3.96972 9.11979 6.00827 2.57494 2.57494 0 0 2.57494 2.57494 2.57494 3.64785 2.57494 2.57494 2.57494 2.57494 2.57494 0 2.57494 2.57494 0 0 2.57494 2.57494 0 2.57494 2.57494 0 0 2.57494 2.57494 0 0 8.15414 9.01249 2.46765 8.9052 10.3 12.3387 13.197 17.2744 15.343 8.7979 11.1584 3.86243 4.39889 4.39889 0 0 4.39889 4.39889 4.39889 0.107288 4.39889 4.39889 4.39889 4.39889 4.39889 0 4.39889 4.39889 0 0 4.39889 4.39889 0 4.39889 4.39889 0 0 4.39889 4.39889 0 0 9.01249 11.1584 5.04264 14.6992 15.8795 13.8408 7.40308 6.97391 7.61767 7.40308 4.1843 8.69061 1.07289 1.07289 7.29579 7.18849 1.07289 1.07289 1.07289 4.50618 1.07289 1.07289 1.07289 1.07289 1.07289 7.18849 1.07289 1.07289 7.18849 7.18849 1.07289 1.07289 7.18849 1.07289 1.07289 7.18849 7.18849 1.07289 1.07289 7.18849 7.18849 2.46765 5.04264 13.4116 8.04684 7.40308 13.3043 14.3773 14.1627 15.1284 8.36873 14.5919 9.11979 6.97391 6.97391 6.75932 6.75932 6.86661 6.86661 6.86661 3.86243 6.86661 6.86661 6.86661 6.86661 6.86661 5.36451 6.86661 6.86661 6.75932 6.75932 6.86661 6.86661 5.36451 6.86661 6.86661 6.75932 6.75932 6.97391 6.97391 6.75932 6.75932 8.9052 14.6992 8.04684 15.0211 14.4846 12.9825 10.4073 14.6992 12.7679 10.5146 16.0941 7.51037 9.22708 9.22708 5.90098 5.90098 9.22708 9.11979 9.11979 7.93955 9.11979 9.11979 9.11979 9.11979 9.22708 4.07701 9.22708 9.22708 6.00827 6.00827 9.22708 9.22708 4.07701 9.22708 9.22708 6.00827 6.00827 9.22708 9.22708 6.00827 6.00827 10.3 15.8795 7.40308 14.4846 15.2357 8.69061 15.2357 8.9052 16.8452 9.22708 14.9138 9.01249 6.54473 6.43744 7.61767 7.61767 6.43744 6.43744 6.43744 6.75932 6.43744 6.43744 6.43744 6.43744 6.43744 7.51037 6.43744 6.43744 7.61767 7.61767 6.43744 6.43744 7.61767 6.43744 6.43744 7.61767 7.61767 6.43744 6.43744 7.61767 7.61767 12.3387 13.8408 13.3043 12.9825 8.69061 18.3474 0.1 0.1 0.1 0.1 0.1 0.1 0.1 0.1 0.1 0.1 0.1 0.1 0.1 0.1 0.1 0.1 0.1 0.1 0.1 0.1 0.1 0.1 0.1 0.1 0.1 0.1 0.1 0.1 0.1 0.1 0.1 0.1 0.1 0.1 0.1 0.1 0.1 0.1 0.1 0.1 0.1 0.1 0.1 0.1 0.1 0.1 0.1 0.1 0.1 0.1 0.1 0.1 0.1 0.1 0.1 0.1 0.1 0.1 0.1 0.1 0.1 0.1 0.1 0.1 0.1 0.1 0.1 0.1 0.1 0.1 0.1 0.1 0.1 0.1 0.1 0.1 0.1 0.1 0.1 0.1 0.1 0.1 0.1 0.1 0.1 0.1 0.1 0.1 0.1 0.1 0.1 0.1 0.1 0.1 0.1 0.1 0.1 0.1 0.1 0.1 0.1 0.1 0.1 0.1 0.1 0.1 0.1 0.1 0.1 0.1 0.1 0.1 0.1 0.1 0.1 0.1 0.1 0.1 0.1 0.1 0.1 0.1 0.1 0.1 0.1 0.1 0.1 0.1 0.1 0.1 0.1 0.1 0.1 0.1 0.1 0.1 0.1 0.1 0.1 0.1 0.1 0.1 0.1 0.1 0.1 0.1 0.1 0.1 0.1 0.1 0.1 0.1 0.1 0.1 0.1 0.1 0.1 0.1 0.1 0.1 0.1 0.1 0.1 0.1 0.1 0.1 0.1 0.1 0.1 0.1 0.1 0.1 0.1 0.1 0.1 0.1 0.1 0.1 0.1 0.1 0.1 0.1 0.1 0.1 0.1 0.1 0.1 0.1 0.1 0.1 0.1 0.1 0.1 0.1 0.1 0.1 0.1 0.1 0.1 0.1 0.1 0.1 0.1 0.1 0.1 0.1 0.1 0.1 0.1 0.1 0.1 0.1 0.1 0.1 0.1 0.1 0.1 0.1 0.1 0.1 0.1 0.1 0.1 0.1 0.1 0.1 0.1 0.1 0.1 0.1 0.1 0.1 0.1 0.1 0.1 0.1 0.1 0.1 0.1 0.1 0.1 0.1 0.1 0.1 0.1 0.1 0.1 0.1 0.1 0.1 0.1 0.1 0.1 0.1 0.1 0.1 0.1 0.1 0.1 0.1 0.1 0.1 0.1 0.1 0.1 0.1 0.1 0.1 0.1 0.1 0.1 0.1 0.1 0.1 0.1 0.1 0.1 0.1 0.1 0.1 0.1 0.1 0.1 0.1 0.1 0.1 0.1 0.1 0.1 0.1 0.1 0.1 0.1 0.1 0.1 0.1 0.1 0.1 0.1 0.1 0.1 0.1 0.1 0.1 0.1 0.1 0.1 0.1 0.1 0.1 0.1 0.1 0.1 0.1 0.1 0.1 0.1 0.1 0.1 0.1 0.1 0.1 0.1 0.1 0.1 0.1 0.1 0.1 
</DataArray>

<DataArray type="Float32" Name="Density" format="ascii">
1000.02 1000.02 1000.02 1000.02 1000.01 1000.01 1000.01 1000.01 1000.01 1000.01 1000.01 1000.01 1000.01 1000.01 1000.01 1000.01 1000.01 1000.01 1000.01 1000.01 1000.01 1000.01 1000.01 1000.01 1000.01 1000.01 1000.01 1000.01 1000.01 1000.01 1000.01 1000.01 1000.01 1000.01 1000.01 1000.01 1000.01 1000.01 1000.02 1000.01 1000.02 1000.02 1000.02 1000.02 1000.01 1000.02 1000.01 1000.01 1000.01 1000.01 1000.01 1000.01 1000.01 1000.01 1000.01 1000.01 1000.01 1000.01 1000.01 1000.01 1000 1000.01 1000.01 1000.01 1000.01 1000.01 1000.01 1000 1000.01 1000.01 1000.01 1000.01 1000.01 1000.01 1000.01 1000.01 1000.01 1000.02 1000.01 1000.02 1000.02 1000.01 1000.02 1000.02 1000.02 1000.01 1000.02 1000.01 1000.01 1000.01 1000.01 1000.01 1000.01 1000.01 1000.01 1000 1000.01 1000.01 1000.01 1000.01 1000.01 1000.01 1000.01 1000.01 1000.01 1000.01 1000.01 1000.01 1000.01 1000.01 1000.01 1000.01 1000.01 1000.01 1000.01 1000.01 1000.01 1000.01 1000.02 1000.01 1000.02 1000.01 1000.02 1000.01 1000.01 1000.01 1000 1000.01 1000.01 1000 1000 1000.01 1000.01 1000 1000 1000 1000.01 1000 1000 1000 1000 1000 1000.01 1000 1000 1000.01 1000.01 1000 1000 1000.01 1000 1000 1000.01 1000.01 1000 1000 1000.01 1000.01 1000 1000.01 1000.01 1000.01 1000.01 1000.01 1000.01 1000.01 1000.01 1000 1000.01 1000 1000 1000 1000 1000 1000 1000 1000 1000 1000 1000 1000 1000 1000 1000 1000 1000 1000 1000 1000 1000 1000 1000 1000 1000 1000 1000 1000 1000 1000 1000.01 1000.01 1000 1000.02 1000.02 1000.02 1000.02 1000.01 1000.01 1000.02 1000 1000 1000 1000 1000 1000 1000 1000 1000 1000 1000 1000 1000 1000 1000 1000 1000 1000 1000 1000 1000 1000 1000 1000 1000 1000 1000 1000 1000 1000 1000 1000.01 1000 1000.01 1000.01 1000.01 1000.01 1000.01 1000.02 1000.02 1000 1000.01 1000 1000 1000 1000 1000 1000 1000 1000 1000 1000 1000 1000 1000 1000 1000 1000 1000 1000 1000 1000 1000 1000 1000 1000 1000 1000 1000 1000 1000 1000 1000 1000 1000 1000.01 1000.01 1000.01 1000.01 1000.01 1000.01 1000 1000.01 1000.01 1000 1000 1000 1000 1000 1000 1000 1000 1000 1000 1000 1000 1000 1000 1000 1000 1000 1000 1000 1000 1000 1000 1000 1000 1000 1000 1000 1000 1000 1000 1000 1000 1000.01 1000.01 1000.01 1000.01 1000.01 1000.01 1000.01 1000 1000 1000 1000 1000 1000 1000 1000 1000 1000 1000 1000 1000 1000 1000 1000 1000 1000 1000 1000 1000 1000 1000 1000 1000 1000 1000 1000 1000 1000 1000 1000 1000 1000.01 1000.01 1000.01 1000.01 1000.01 1000.01 1000.01 1000.01 1000 1000 1000 1000 1000 1000 1000 1000 1000 1000 1000 1000 1000 1000 1000 1000 1000 1000 1000 1000 1000 1000 1000 1000 1000 1000 1000 1000 1000 1000 1000 1000 1000 1000.01 1000.01 1000.01 1000.01 1000.01 1000.01 1000.01 1000 1000 1000 1000 1000 1000 1000 1000 1000 1000 1000 1000 1000 1000 1000 1000 1000 1000 1000 1000 1000 1000 1000 1000 1000 1000 1000 1000 1000 1000 1000 1000 1000 1000 1000 1000.01 1000.01 1000.01 1000.01 1000.01 1000.01 1000 1000 1000 1000 1000 1000 1000 1000 1000 1000 1000 1000 1000 1000 1000 1000 1000 1000 1000 1000 1000 1000 1000 1000 1000 1000 1000 1000 1000 1000 1000 1000 1000 1000 1000 1000.01 1000.01 1000.01 1000.01 1000.01 1000.01 1000 1000 1000 1000 1000 1000 1000 1000 1000 1000 1000 1000 1000 1000 1000 1000 1000 1000 1000 1000 1000 1000 1000 1000 1000 1000 1000 1000 1000 1000 1000 1000 1000 1000 1000 1000.01 1000.01 1000.01 1000.01 1000.01 1000 1000.01 1000 1000 1000 1000 1000 1000 1000 1000 1000 1000 1000 1000 1000 1000 1000 1000 1000 1000 1000 1000 1000 1000 1000 1000 1000 1000 1000 1000 1000 1000 1000 1000 1000 1000.01 1000 1000.01 1000.01 1000.01 1000.01 1000.01 1000 1000 1000 1000 1000 1000 1000 1000 1000 1000 1000 1000 1000 1000 1000 1000 1000 1000 1000 1000 1000 1000 1000 1000 1000 1000 1000 1000 1000 1000 1000 1000 1000 1000 1000 1000.01 1000.01 1000.01 1000.01 1000.01 1000.01 1000 1000 1000 1000 1000 1000 1000 1000 1000 1000 1000 1000 1000 1000 1000 1000 1000 1000 1000 1000 1000 1000 1000 1000 1000 1000 1000 1000 1000 1000 1000 1000 1000 1000 1000 1000.01 1000.01 1000.01 1000.01 1000.01 1000.01 1000 1000 1000 1000 1000 1000 1000 1000 1000 1000 1000 1000 1000 1000 1000 1000 1000 1000 1000 1000 1000 1000 1000 1000 1000 1000 1000 1000 1000 1000 1000 1000 1000 1000 1000 1000.01 1000.01 1000.01 1000.01 1000.01 1000.01 1000 1000 1000 1000 1000 1000 1000 1000 1000 1000 1000 1000 1000 1000 1000 1000 1000 1000 1000 1000 1000 1000 1000 1000 1000 1000 1000 1000 1000 1000 1000 1000 1000 1000 1000 1000.01 1000.01 1000.01 1000.01 1000.01 1000.01 1000 1000 1000 1000 1000 1000 1000 1000 1000 1000 1000 1000 1000 1000 1000 1000 1000 1000 1000 1000 1000 1000 1000 1000 1000 1000 1000 1000 1000 1000 1000 1000 1000 1000 1000 1000.01 1000.01 1000.01 1000.01 1000 1000.01 1000.01 1000 1000 1000 1000 1000 1000 1000 1000 1000 1000 1000 1000 1000 1000 1000 1000 1000 1000 1000 1000 1000 1000 1000 1000 1000 1000 1000 1000 1000 1000 1000 1000 1000 1000.01 1000.01 1000 1000.01 1000.01 1000.01 1000.01 1000 1000 1000 1000 1000 1000 1000 1000 1000 1000 1000 1000 1000 1000 1000 1000 1000 1000 1000 1000 1000 1000 1000 1000 1000 1000 1000 1000 1000 1000 1000 1000 1000 1000 1000 1000.01 1000.01 1000.01 1000.01 1000.01 1000.01 1000 1000 1000 1000 1000 1000 1000 1000 1000 1000 1000 1000 1000 1000 1000 1000 1000 1000 1000 1000 1000 1000 1000 1000 1000 1000 1000 1000 1000 1000 1000 1000 1000 1000 1000 1000.01 1000.01 1000.01 1000.01 1000.01 1000.01 1000.01 1000 1000 1000 1000 1000 1000 1000 1000 1000 1000 1000 1000 1000 1000 1000 1000 1000 1000 1000 1000 1000 1000 1000 1000 1000 1000 1000 1000 1000 1000 1000 1000 1000 1000.01 1000.01 1000.01 1000.01 1000.01 1000.01 1000.01 1000.01 1000 1000 1000 1000 1000 1000 1000 1000 1000 1000 1000 1000 1000 1000 1000 1000 1000 1000 1000 1000 1000 1000 1000 1000 1000 1000 1000 1000 1000 1000 1000 1000 1000 1000.01 1000.01 1000.01 1000.01 1000.01 1000.01 1000.01 1000 1000 1000 1000 1000 1000 1000 1000 1000 1000 1000 1000 1000 1000 1000 1000 1000 1000 1000 1000 1000 1000 1000 1000 1000 1000 1000 1000 1000 1000 1000 1000 1000 1000 1000 1000.01 1000.01 1000.01 1000.01 1000.01 1000.01 1000 1000 1000 1000 1000 1000 1000 1000 1000 1000 1000 1000 1000 1000 1000 1000 1000 1000 1000 1000 1000 1000 1000 1000 1000 1000 1000 1000 1000 1000 1000 1000 1000 1000 1000 1000.01 1000.01 1000.01 1000.01 1000 1000.01 1000.01 1000 1000 1000 1000 1000 1000 1000 1000 1000 1000 1000 1000 1000 1000 1000 1000 1000 1000 1000 1000 1000 1000 1000 1000 1000 1000 1000 1000 1000 1000 1000 1000 1000 1000.01 1000.01 1000 1000.01 1000.01 1000.01 1000.01 1000 1000 1000 1000 1000 1000 1000 1000 1000 1000 1000 1000 1000 1000 1000 1000 1000 1000 1000 1000 1000 1000 1000 1000 1000 1000 1000 1000 1000 1000 1000 1000 1000 1000 1000 1000.01 1000.01 1000.01 1000.01 1000.01 1000.01 1000 1000 1000 1000 1000 1000 1000 1000 1000 1000 1000 1000 1000 1000 1000 1000 1000 1000 1000 1000 1000 1000 1000 1000 1000 1000 1000 1000 1000 1000 1000 1000 1000 1000 1000 1000.01 1000.01 1000.01 1000.01 1000.01 1000.01 1000.01 1000 1000 1000 1000 1000 1000 1000 1000 1000 1000 1000 1000 1000 1000 1000 1000 1000 1000 1000 1000 1000 1000 1000 1000 1000 1000 1000 1000 1000 1000 1000 1000 1000 1000.01 1000.01 1000.01 1000.01 1000.01 1000.01 1000.01 1000.01 1000 1000 1000 1000 1000 1000 1000 1000 1000 1000 1000 1000 1000 1000 1000 1000 1000 1000 1000 1000 1000 1000 1000 1000 1000 1000 1000 1000 1000 1000 1000 1000 1000 1000.01 1000.01 1000.01 1000.01 1000.01 1000.01 1000.01 1000 1000 1000 1000 1000 1000 1000 1000 1000 1000 1000 1000 1000 1000 1000 1000 1000 1000 1000 1000 1000 1000 1000 1000 1000 1000 1000 1000 1000 1000 1000 1000 1000 1000 1000 1000.01 1000.01 1000.01 1000.01 1000.01 1000.01 1000 1000 1000 1000 1000 1000 1000 1000 1000 1000 1000 1000 1000 1000 1000 1000 1000 1000 1000 1000 1000 1000 1000 1000 1000 1000 1000 1000 1000 1000 1000 1000 1000 1000 1000 1000.01 1000.01 1000.01 1000.01 1000.01 1000.01 1000.01 1000 1000 1000 1000 1000 1000 1000 1000 1000 1000 1000 1000 1000 1000 1000 1000 1000 1000 1000 1000 1000 1000 1000 1000 1000 1000 1000 1000 1000 1000 1000 1000 1000 1000.01 1000.01 1000.01 1000.01 1000.01 1000.01 1000.01 1000.01 1000 1000 1000 1000 1000 1000 1000 1000 1000 1000 1000 1000 1000 1000 1000 1000 1000 1000 1000 1000 1000 1000 1000 1000 1000 1000 1000 1000 1000 1000 1000 1000 1000 1000.01 1000.01 1000.01 1000.01 1000.01 1000.01 1000.01 1000 1000.01 1000.01 1000 1000 1000 1000 1000 1000 1000 1000 1000 1000 1000 1000 1000 1000 1000 1000 1000 1000 1000 1000 1000 1000 1000 1000 1000 1000 1000 1000 1000 1000.01 1000.01 1000 1000.01 1000.01 1000.01 1000.01 1000.02 1000.02 1000.01 1000.01 1000 1000 1000 1000 1000 1000 1000 1000 1000 1000 1000 1000 1000 1000 1000 1000 1000 1000 1000 1000 1000 1000 1000 1000 1000 1000 1000 1000 1000 1000 1000.01 1000.01 1000.01 1000.02 1000.02 1000.02 1000.01 1000.01 1000.01 1000.01 1000 1000.01 1000 1000 1000.01 1000.01 1000 1000 1000 1000.01 1000 1000 1000 1000 1000 1000.01 1000 1000 1000.01 1000.01 1000 1000 1000.01 1000 1000 1000.01 1000.01 1000 1000 1000.01 1000.01 1000 1000.01 1000.01 1000.01 1000.01 1000.01 1000.02 1000.02 1000.02 1000.01 1000.02 1000.01 1000.01 1000.01 1000.01 1000.01 1000.01 1000.01 1000.01 1000 1000.01 1000.01 1000.01 1000.01 1000.01 1000.01 1000.01 1000.01 1000.01 1000.01 1000.01 1000.01 1000.01 1000.01 1000.01 1000.01 1000.01 1000.01 1000.01 1000.01 1000.01 1000.01 1000.02 1000.01 1000.02 1000.02 1000.01 1000.01 1000.02 1000.01 1000.01 1000.02 1000.01 1000.01 1000.01 1000.01 1000.01 1000.01 1000.01 1000.01 1000.01 1000.01 1000.01 1000.01 1000.01 1000.01 1000 1000.01 1000.01 1000.01 1000.01 1000.01 1000.01 1000 1000.01 1000.01 1000.01 1000.01 1000.01 1000.01 1000.01 1000.01 1000.01 1000.02 1000.01 1000.02 1000.02 1000.01 1000.02 1000.01 1000.02 1000.01 1000.02 1000.01 1000.01 1000.01 1000.01 1000.01 1000.01 1000.01 1000.01 1000.01 1000.01 1000.01 1000.01 1000.01 1000.01 1000.01 1000.01 1000.01 1000.01 1000.01 1000.01 1000.01 1000.01 1000.01 1000.01 1000.01 1000.01 1000.01 1000.01 1000.01 1000.01 1000.01 1000.02 1000.01 1000.01 1000.01 1000.02 1000 1000 1000 1000 1000 1000 1000 1000 1000 1000 1000 1000 1000 1000 1000 1000 1000 1000 1000 1000 1000 1000 1000 1000 1000 1000 1000 1000 1000 1000 1000 1000 1000 1000 1000 1000 1000 1000 1000 1000 1000 1000 1000 1000 1000 1000 1000 1000 1000 1000 1000 1000 1000 1000 1000 1000 1000 1000 1000 1000 1000 1000 1000 1000 1000 1000 1000 1000 1000 1000 1000 1000 1000 1000 1000 1000 1000 1000 1000 1000 1000 1000 1000 1000 1000 1000 1000 1000 1000 1000 1000 1000 1000 1000 1000 1000 1000 1000 1000 1000 1000 1000 1000 1000 1000 1000 1000 1000 1000 1000 1000 1000 1000 1000 1000 1000 1000 1000 1000 1000 1000 1000 1000 1000 1000 1000 1000 1000 1000 1000 1000 1000 1000 1000 1000 1000 1000 1000 1000 1000 1000 1000 1000 1000 1000 1000 1000 1000 1000 1000 1000 1000 1000 1000 1000 1000 1000 1000 1000 1000 1000 1000 1000 1000 1000 1000 1000 1000 1000 1000 1000 1000 1000 1000 1000 1000 1000 1000 1000 1000 1000 1000 1000 1000 1000 1000 1000 1000 1000 1000 1000 1000 1000 1000 1000 1000 1000 1000 1000 1000 1000 1000 1000 1000 1000 1000 1000 1000 1000 1000 1000 1000 1000 1000 1000 1000 1000 1000 1000 1000 1000 1000 1000 1000 1000 1000 1000 1000 1000 1000 1000 1000 1000 1000 1000 1000 1000 1000 1000 1000 1000 1000 1000 1000 1000 1000 1000 1000 1000 1000 1000 1000 1000 1000 1000 1000 1000 1000 1000 1000 1000 1000 1000 1000 1000 1000 1000 1000 1000 1000 1000 1000 1000 1000 1000 1000 1000 1000 1000 1000 1000 1000 1000 1000 1000 1000 1000 1000 1000 1000 1000 1000 1000 1000 1000 1000 1000 1000 1000 1000 1000 1000 1000 1000 1000 1000 1000 1000 1000 1000 1000 1000 1000 1000 1000 1000 1000 1000 1000 1000 1000 1000 1000 1000 1000 1000 1000 1000 
</DataArray>
<DataArray type="Float32" Name="Velocity" NumberOfComponents="3" format="ascii">
0.0043121385 0.005983769 0
0.0001709354 0.005825147 0
-0.00015188612 0.0054067327 0
0.00017545026 0.0047161253 0
7.122066e-05 0.0040158387 0
4.3405853e-05 0.0028842418 0
6.0128531e-07 0.0040701865 0
7.076801e-07 0.0040701786 0
4.1948275e-07 0.0029068743 0
3.4791231e-06 0.0029055823 0
-8.1053673e-07 0.0040701744 0
1.5080512e-07 0.004070187 0
5.352204e-08 0.0040701819 0
2.7219105e-10 0.0049682073 0
-6.0717269e-08 0.0040701847 0
-1.2496611e-06 0.0040701879 0
-8.1950802e-08 0.0040701879 0
3.6432226e-07 0.0040701926 0
1.0964778e-06 0.0040701688 0
6.1792167e-07 0.0028878229 0
2.3647516e-07 0.0040701861 0
2.8691639e-07 0.0040701902 0
-7.6484133e-07 0.0028984901 0
6.0618049e-07 0.0028984901 0
-3.7393696e-07 0.0040701865 0
-1.3764786e-07 0.004070187 0
-3.4649859e-11 0.0028878991 0
1.3764787e-07 0.004070187 0
3.7393696e-07 0.0040701865 0
-5.8973637e-07 0.0028984901 0
1.4143797e-07 0.0028984917 0
-5.0064057e-07 0.0040701865 0
5.030509e-07 0.0040701865 0
-4.1360881e-06 0.0028986309 0
-2.5469589e-08 0.0028984896 0
-0.00014081558 0.004056483 0
-0.00011169584 0.0039548278 0
-0.00011481017 0.0029511512 0
-0.00097957184 0.0041047679 0
-0.00017056971 0.0038816312 0
-0.0045824526 0.0044411519 0
0.0041454998 0.0011815631 0
0.00076547283 0.0011989753 0
0.00019889727 0.00068856688 0
0.00011078334 0.00073484 0
0.00032775453 0.00092503056 0
1.8006499e-06 0.00078134605 0
1.1710958e-05 0.0011096224 0
1.2111157e-05 0.0011094178 0
-1.0619034e-06 0.00093985489 0
1.4992669e-07 0.00093963573 0
3.5714891e-06 0.0011095332 0
6.1685332e-06 0.0011097289 0
2.6361513e-06 0.0011097951 0
-6.656748e-07 0.0014168444 0
4.5302136e-06 0.0011096532 0
3.3563315e-06 0.0011097718 0
-2.8844383e-08 0.0011097941 0
2.7095766e-07 0.0011097773 0
2.3608025e-06 0.0011096672 0
-4.0463419e-09 0.00078493211 0
-1.2999966e-06 0.0011096545 0
-6.7520085e-07 0.0011096246 0
-1.0736294e-06 0.00093936227 0
1.0302424e-06 0.00093936268 0
1.0992259e-06 0.001109633 0
2.1531539e-06 0.0011096182 0
-1.1831831e-10 0.00078480446 0
-3.8138874e-06 0.0011096335 0
-2.4254662e-06 0.0011096181 0
-9.3418799e-07 0.0009393603 0
1.2538294e-06 0.00093935226 0
-7.9514584e-06 0.0011094075 0
-5.4593625e-06 0.0011093982 0
-7.5022257e-07 0.00093918014 0
1.5710341e-06 0.00093933538 0
-7.1046568e-05 0.0011064287 0
-0.00020024409 0.0010735672 0
-0.00018789277 0.00066372741 0
-0.0004182402 0.0004959997 0
-0.00066199771 0.00066843373 0
-0.0038231066 0.00010306567 0
0.0035926814 0.00060343085 0
0.00047539829 0.00041438916 0
0.00063161127 0.00020769521 0
0.00028553943 0.0001443449 0
0.00023472734 3.6100762e-05 0
5.4622393e-05 0.00013876542 0
4.6959244e-07 0.00017015936 0
7.9117799e-06 0.00016950039 0
1.9334254e-06 0.0001669498 0
3.6556276e-06 0.00016743534 0
-3.5372277e-06 0.0001690581 0
-1.6868117e-06 0.0001685623 0
-2.8677273e-06 0.00016824198 0
-1.3213061e-06 0.00011521909 0
8.1252784e-07 0.00016844773 0
-3.9888749e-07 0.00016851645 0
1.4981747e-06 0.00016849567 0
8.0329221e-07 0.00016850494 0
-3.0901245e-07 0.00016865374 0
2.0086097e-06 0.0001483037 0
-1.1477704e-06 0.00016863612 0
2.1026985e-06 0.00016865008 0
-1.1046545e-06 0.00016772495 0
3.8852272e-07 0.00016773885 0
-1.7570351e-06 0.00016862633 0
-3.751725e-07 0.00016867861 0
-9.1644438e-07 0.00014820065 0
-1.4719208e-06 0.00016870463 0
-1.5060522e-06 0.0001688349 0
-5.4542747e-06 0.00016753549 0
-6.565291e-07 0.00016726056 0
1.3062667e-06 0.00016927169 0
1.6337538e-06 0.00016939851 0
-2.8758673e-06 0.00016714921 0
-1.8930292e-05 0.00016643327 0
-5.1022274e-05 0.00016691437 0
-0.00015439402 0.00015144111 0
-0.00028498602 0.00016738834 0
-0.00037993459 0.0003960988 0
-0.00044046497 0.00049398001 0
-0.0039694859 0.00086257618 0
0.0041352869 0.00033172697 0
0.00089439173 0.00028890636 0
0.00044429756 0.0002510522 0
9.2066199e-05 0.00011388 0
0.0001034879 0.00014631409 0
3.8129208e-05 0.00010721494 0
7.5950761e-06 0.00010470308 0
-3.3453796e-07 0.00010460058 0
1.5767905e-06 0.00011433836 0
4.2657539e-06 0.00011425176 0
1.3432514e-06 0.00010441721 0
-9.6216645e-08 0.00010427276 0
-3.3722586e-07 0.00010424975 0
-3.8090704e-07 0.00013526545 0
-3.3073954e-07 0.00010424573 0
-4.3293844e-07 0.00010427281 0
2.9523284e-07 0.00010427283 0
8.343149e-07 0.00010427193 0
8.70397e-07 0.0001043505 0
6.7561649e-07 0.00010885818 0
-4.5900027e-08 0.00010435692 0
-2.0427897e-06 0.00010443779 0
-3.9161489e-07 0.00011349648 0
3.8943926e-07 0.0001134967 0
2.5499385e-06 0.0001044376 0
1.5964043e-08 0.0001043538 0
-1.9540628e-11 0.00010900239 0
-1.5231894e-08 0.00010435384 0
-2.5473123e-06 0.00010443792 0
-3.8186013e-07 0.00011349629 0
3.4137095e-06 0.00011357747 0
-1.4477024e-07 0.0001043852 0
-1.6483095e-06 0.00010443958 0
-8.893252e-06 0.00011362244 0
-7.3508968e-06 0.00011324791 0
-3.8895152e-05 0.00010149187 0
-0.00015762386 7.4587857e-05 0
-0.00017653096 0.00020855255 0
-0.00017147318 0.00029181203 0
-0.00099386799 0.00011931526 0
-0.0040825405 0.00024823658 0
0.0041620987 0.00048052077 0
0.0009757331 8.5974403e-05 0
0.00028583762 0.00011187714 0
0.00013390783 7.5937569e-05 0
0.000109416 8.7830493e-05 0
3.6650636e-05 3.2371977e-06 0
3.8778462e-06 8.9984424e-05 0
4.2657052e-06 8.9906818e-05 0
1.7730646e-06 6.1200622e-06 0
-1.191216e-06 6.0615239e-06 0
2.1521144e-08 8.9906382e-05 0
-1.6433964e-07 8.9894434e-05 0
-1.2785758e-06 8.9861343e-05 0
-1.9401809e-07 7.2166047e-05 0
-3.6897711e-07 8.9858164e-05 0
1.8872237e-07 8.9894456e-05 0
1.3574992e-06 8.9893627e-05 0
-3.046522e-08 8.9893816e-05 0
2.2516195e-07 8.991934e-05 0
5.3798868e-07 6.0326565e-06 0
1.0507475e-07 8.9898931e-05 0
8.8836777e-07 8.9897258e-05 0
7.3801027e-07 6.0567168e-06 0
-7.3800993e-07 6.0567181e-06 0
-2.3241803e-07 8.989717e-05 0
1.3304147e-09 8.9896377e-05 0
1.4352963e-15 6.0379944e-06 0
-1.3304147e-09 8.9896377e-05 0
2.3241803e-07 8.989717e-05 0
7.3800993e-07 6.0567177e-06 0
-7.3812265e-07 6.0567618e-06 0
-3.7857362e-07 8.9899157e-05 0
3.7859544e-07 8.9899164e-05 0
7.1608969e-07 6.0570355e-06 0
-1.407838e-05 5.9070699e-06 0
-0.00010070352 6.7187524e-05 0
-8.8941211e-05 0.00018100039 0
-9.9707468e-05 7.4018637e-05 0
-0.00017047032 0.00012207485 0
-0.0010698781 0.00022405259 0
-0.0038849479 0.00025442167 0
0.0029961844 0.00018729894 0
0.00078180392 0.00015242553 0
0.00031383726 7.5121054e-05 0
0.00011821081 0.00015139446 0
4.9068443e-05 4.9427439e-05 0
2.4803858e-06 -5.4163104e-07 0
2.3006871e-07 2.454425e-05 0
3.3644272e-07 2.4543348e-05 0
7.6624453e-08 9.8653175e-09 0
-4.4298176e-07 9.2149905e-09 0
-3.2947577e-07 2.4543842e-05 0
-2.9343431e-07 2.4543318e-05 0
9.2583127e-07 2.4543097e-05 0
4.0434316e-11 8.1347302e-05 0
-9.2713628e-07 2.4543127e-05 0
-3.9480035e-08 2.4543324e-05 0
3.1731437e-07 2.4543318e-05 0
3.8238721e-07 2.454336e-05 0
5.4929458e-08 2.4543722e-05 0
-1.3825222e-07 8.5895433e-09 0
1.4056201e-07 2.4543973e-05 0
-3.1875473e-08 2.4543811e-05 0
3.6874812e-07 9.3339656e-09 0
-3.6874809e-07 9.3339674e-09 0
3.2350638e-08 2.454376e-05 0
-1.4362809e-07 2.4543962e-05 0
4.6391338e-15 8.4662855e-09 0
1.4362809e-07 2.4543962e-05 0
-3.2350638e-08 2.454376e-05 0
3.6874809e-07 9.3339674e-09 0
-3.687482e-07 9.3339771e-09 0
3.1910886e-08 2.4543771e-05 0
-3.1910886e-08 2.4543771e-05 0
3.6817605e-07 9.3344275e-09 0
-1.4096997e-06 7.2483153e-09 0
-1.837697e-05 5.2089687e-05 0
6.3369116e-06 7.8883779e-05 0
-0.00012036815 1.9710054e-05 0
-0.00016019447 5.7329864e-05 0
-0.00092864904 3.5827237e-05 0
-0.0029128226 3.739911e-05 0
0.0040230104 1.9997522e-05 0
0.0012132487 6.854174e-05 0
0.00027547203 0.00011952449 0
9.3392875e-05 4.0973147e-05 0
0.00014852606 1.1399409e-05 0
4.8514063e-05 -5.5456057e-06 0
1.2567846e-06 6.7862788e-07 0
5.5739178e-09 6.7849078e-07 0
0 -4.7746509e-09 0
0 -4.7746509e-09 0
-4.7706261e-09 6.7849084e-07 0
4.6186717e-09 6.7849078e-07 0
-1.4547913e-07 6.7842421e-07 0
0 3.0836116e-05 0
1.454794e-07 6.7842421e-07 0
-4.6186006e-09 6.7849078e-07 0
4.7729709e-09 6.7849078e-07 0
-4.7756559e-09 6.7849078e-07 0
4.7728359e-09 6.7849078e-07 0
0 -4.7746509e-09 0
-4.7724029e-09 6.7849101e-07 0
4.7724029e-09 6.7849101e-07 0
0 -4.7746509e-09 0
0 -4.7746509e-09 0
-4.7724029e-09 6.7849101e-07 0
4.7724029e-09 6.7849101e-07 0
0 -4.7746509e-09 0
-4.7724029e-09 6.7849101e-07 0
4.7724029e-09 6.7849101e-07 0
0 -4.7746509e-09 0
0 -4.7746509e-09 0
-4.7724029e-09 6.7849101e-07 0
4.7724029e-09 6.7849101e-07 0
-2.3200403e-10 -4.7746509e-09 0
-6.8331212e-07 -4.7808535e-09 0
-2.4590256e-05 8.5237525e-07 0
-8.9932342e-05 4.313059e-06 0
-0.0001047009 7.2838825e-06 0
-0.00017018072 4.1203934e-06 0
-0.0011095514 1.2175181e-05 0
-0.0040702075 9.7969883e-07 0
0.0040625273 8.7059481e-05 0
0.00112146 7.372495e-05 0
0.00017761122 5.377434e-05 0
0.00010400613 3.8318017e-06 0
7.3153882e-05 5.1589293e-05 0
4.3919958e-05 9.8498458e-06 0
1.1283511e-06 4.973995e-09 0