<?xml version="1.0" ?>

<VTKFile type="UnstructuredGrid" version="0.1" byte_order="BigEndian">

<UnstructuredGrid>

<Piece NumberOfPoints= " 2009 " NumberOfCells=" 2009 ">

<PointData Scalars="Pressure" Vectors="Velocity">

<DataArray type="Float32" Name="Pressure" format="ascii">

32.2973 32.8338 21.6738 9.54897 8.47602 3.54056 8.58331 8.58331 3.54056 3.54056 8.58331 8.58331 8.58331 9.97815 8.58331 8.58331 8.58331 8.58331 8.58331 3.54056 8.58331 8.58331 3.54056 3.54056 8.58331 8.58331 3.54056 8.58331 8.58331 3.54056 3.54056 8.58331 8.58331 3.54056 3.54056 8.58331 8.58331 3.54056 14.8065 27.1464 29.1853 22.3176 24.1418 8.58331 8.36873 9.01249 3.96972 9.11979 9.11979 3.96972 3.96972 9.11979 9.11979 9.11979 8.04684 9.11979 9.11979 9.11979 9.11979 9.11979 3.96972 9.11979 9.11979 3.96972 3.96972 9.11979 9.11979 3.96972 9.11979 9.11979 3.96972 3.96972 9.11979 9.11979 3.96972 3.96972 9.11979 9.11979 3.96972 15.5576 29.1853 27.0391 29.8291 32.9411 15.4503 3.43327 1.71662 0 1.71662 1.71662 0 0 1.71662 1.71662 1.71662 6.75932 1.71662 1.71662 1.71662 1.71662 1.71662 0 1.71662 1.71662 0 0 1.71662 1.71662 0 1.71662 1.71662 0 0 1.71662 1.71662 0 0 1.71662 1.71662 0 5.79368 15.2357 13.9481 9.01249 9.76356 1.9312 0 0 0 0 0 0 0 0 0 0 0 0 0 0 0 0 0 0 0 0 0 0 0 0 0 0 0 0 0 0 0 0 0 0 0 1.82391 9.11979 8.58331 8.47602 9.01249 1.71662 0 0 0 0 0 0 0 0 0 0 0 0 0 0 0 0 0 0 0 0 0 0 0 0 0 0 0 0 0 0 0 0 0 0 0 1.71662 9.01249 8.47602 3.54056 3.96972 0 0 0 0 0 0 0 0 0 0 0 0 0 0 0 0 0 0 0 0 0 0 0 0 0 0 0 0 0 0 0 0 0 0 0 0 0 3.96972 3.54056 8.58331 9.11979 1.71662 0 0 0 0 0 0 0 0 0 0 0 0 0 0 0 0 0 0 0 0 0 0 0 0 0 0 0 0 0 0 0 0 0 0 0 1.71662 9.11979 8.58331 8.58331 9.11979 1.71662 0 0 0 0 0 0 0 0 0 0 0 0 0 0 0 0 0 0 0 0 0 0 0 0 0 0 0 0 0 0 0 0 0 0 0 1.71662 9.11979 8.58331 3.54056 3.96972 0 0 0 0 0 0 0 0 0 0 0 0 0 0 0 0 0 0 0 0 0 0 0 0 0 0 0 0 0 0 0 0 0 0 0 0 0 3.96972 3.54056 3.54056 3.96972 0 0 0 0 0 0 0 0 0 0 0 0 0 0 0 0 0 0 0 0 0 0 0 0 0 0 0 0 0 0 0 0 0 0 0 0 0 3.96972 3.54056 8.58331 9.11979 1.71662 0 0 0 0 0 0 0 0 0 0 0 0 0 0 0 0 0 0 0 0 0 0 0 0 0 0 0 0 0 0 0 0 0 0 0 1.71662 9.11979 8.58331 8.58331 9.11979 1.71662 0 0 0 0 0 0 0 0 0 0 0 0 0 0 0 0 0 0 0 0 0 0 0 0 0 0 0 0 0 0 0 0 0 0 0 1.71662 9.11979 8.58331 8.58331 9.11979 1.71662 0 0 0 0 0 0 0 0 0 0 0 0 0 0 0 0 0 0 0 0 0 0 0 0 0 0 0 0 0 0 0 0 0 0 0 1.71662 9.11979 8.58331 9.97815 8.04684 6.75932 0 0 0 0 0 0 0 0 0 0 0 0 0 0 0 0 0 0 0 0 0 0 0 0 0 0 0 0 0 0 0 0 0 0 0 6.75932 8.04684 9.97815 8.58331 9.11979 1.71662 0 0 0 0 0 0 0 0 0 0 0 0 0 0 0 0 0 0 0 0 0 0 0 0 0 0 0 0 0 0 0 0 0 0 0 1.71662 9.11979 8.58331 8.58331 9.11979 1.71662 0 0 0 0 0 0 0 0 0 0 0 0 0 0 0 0 0 0 0 0 0 0 0 0 0 0 0 0 0 0 0 0 0 0 0 1.71662 9.11979 8.58331 8.58331 9.11979 1.71662 0 0 0 0 0 0 0 0 0 0 0 0 0 0 0 0 0 0 0 0 0 0 0 0 0 0 0 0 0 0 0 0 0 0 0 1.71662 9.11979 8.58331 8.58331 9.11979 1.71662 0 0 0 0 0 0 0 0 0 0 0 0 0 0 0 0 0 0 0 0 0 0 0 0 0 0 0 0 0 0 0 0 0 0 0 1.71662 9.11979 8.58331 8.58331 9.11979 1.71662 0 0 0 0 0 0 0 0 0 0 0 0 0 0 0 0 0 0 0 0 0 0 0 0 0 0 0 0 0 0 0 0 0 0 0 1.71662 9.11979 8.58331 3.54056 3.96972 0 0 0 0 0 0 0 0 0 0 0 0 0 0 0 0 0 0 0 0 0 0 0 0 0 0 0 0 0 0 0 0 0 0 0 0 0 3.96972 3.54056 8.58331 9.11979 1.71662 0 0 0 0 0 0 0 0 0 0 0 0 0 0 0 0 0 0 0 0 0 0 0 0 0 0 0 0 0 0 0 0 0 0 0 1.71662 9.11979 8.58331 8.58331 9.11979 1.71662 0 0 0 0 0 0 0 0 0 0 0 0 0 0 0 0 0 0 0 0 0 0 0 0 0 0 0 0 0 0 0 0 0 0 0 1.71662 9.11979 8.58331 3.54056 3.96972 0 0 0 0 0 0 0 0 0 0 0 0 0 0 0 0 0 0 0 0 0 0 0 0 0 0 0 0 0 0 0 0 0 0 0 0 0 3.96972 3.54056 3.54056 3.96972 0 0 0 0 0 0 0 0 0 0 0 0 0 0 0 0 0 0 0 0 0 0 0 0 0 0 0 0 0 0 0 0 0 0 0 0 0 3.96972 3.54056 8.58331 9.11979 1.71662 0 0 0 0 0 0 0 0 0 0 0 0 0 0 0 0 0 0 0 0 0 0 0 0 0 0 0 0 0 0 0 0 0 0 0 1.71662 9.11979 8.58331 8.58331 9.11979 1.71662 0 0 0 0 0 0 0 0 0 0 0 0 0 0 0 0 0 0 0 0 0 0 0 0 0 0 0 0 0 0 0 0 0 0 0 1.71662 9.11979 8.58331 3.54056 3.96972 0 0 0 0 0 0 0 0 0 0 0 0 0 0 0 0 0 0 0 0 0 0 0 0 0 0 0 0 0 0 0 0 0 0 0 0 0 3.96972 3.54056 8.58331 9.11979 1.71662 0 0 0 0 0 0 0 0 0 0 0 0 0 0 0 0 0 0 0 0 0 0 0 0 0 0 0 0 0 0 0 0 0 0 0 1.71662 9.11979 8.58331 8.58331 9.11979 1.71662 0 0 0 0 0 0 0 0 0 0 0 0 0 0 0 0 0 0 0 0 0 0 0 0 0 0 0 0 0 0 0 0 0 0 0 1.71662 9.11979 8.58331 3.54056 3.96972 0 0 0 0 0 0 0 0 0 0 0 0 0 0 0 0 0 0 0 0 0 0 0 0 0 0 0 0 0 0 0 0 0 0 0 0 0 3.96972 3.54056 3.54056 3.96972 0 0 0 0 0 0 0 0 0 0 0 0 0 0 0 0 0 0 0 0 0 0 0 0 0 0 0 0 0 0 0 0 0 0 0 0 0 3.96972 3.54056 8.58331 9.11979 1.71662 0 0 0 0 0 0 0 0 0 0 0 0 0 0 0 0 0 0 0 0 0 0 0 0 0 0 0 0 0 0 0 0 0 0 0 1.71662 9.11979 8.58331 8.58331 9.11979 1.71662 0 0 0 0 0 0 0 0 0 0 0 0 0 0 0 0 0 0 0 0 0 0 0 0 0 0 0 0 0 0 0 0 0 0 0 1.71662 9.11979 8.58331 3.54056 3.96972 0 0 0 0 0 0 0 0 0 0 0 0 0 0 0 0 0 0 0 0 0 0 0 0 0 0 0 0 0 0 0 0 0 0 0 0 0 3.96972 3.54056 3.54056 3.96972 0 0 0 0 0 0 0 0 0 0 0 0 0 0 0 0 0 0 0 0 0 0 0 0 0 0 0 0 0 0 0 0 0 0 0 0 0 3.96972 3.54056 8.58331 9.11979 1.71662 0 0 0 0 0 0 0 0 0 0 0 0 0 0 0 0 0 0 0 0 0 0 0 0 0 0 0 0 0 0 0 0 0 0 0 1.71662 9.11979 8.58331 8.58331 9.11979 1.71662 0 0 0 0 0 0 0 0 0 0 0 0 0 0 0 0 0 0 0 0 0 0 0 0 0 0 0 0 0 0 0 0 0 0 0 1.71662 9.11979 8.58331 3.54056 3.96972 0 0 0 0 0 0 0 0 0 0 0 0 0 0 0 0 0 0 0 0 0 0 0 0 0 0 0 0 0 0 0 0 0 0 0 0 0 3.96972 3.54056 14.8065 15.5576 5.79368 1.82391 1.71662 0 1.71662 1.71662 0 0 1.71662 1.71662 1.71662 6.75932 1.71662 1.71662 1.71662 1.71662 1.71662 0 1.71662 1.71662 0 0 1.71662 1.71662 0 1.71662 1.71662 0 0 1.71662 1.71662 0 0 1.71662 1.71662 0 6.11556 15.6649 14.8065 27.1464 29.1853 15.2357 9.11979 9.01249 3.96972 9.11979 9.11979 3.96972 3.96972 9.11979 9.11979 9.11979 8.04684 9.11979 9.11979 9.11979 9.11979 9.11979 3.96972 9.11979 9.11979 3.96972 3.96972 9.11979 9.11979 3.96972 9.11979 9.11979 3.96972 3.96972 9.11979 9.11979 3.96972 3.96972 9.11979 9.11979 3.96972 15.6649 29.2926 27.2537 29.1853 27.0391 13.9481 8.58331 8.47602 3.54056 8.58331 8.58331 3.54056 3.54056 8.58331 8.58331 8.58331 9.97815 8.58331 8.58331 8.58331 8.58331 8.58331 3.54056 8.58331 8.58331 3.54056 3.54056 8.58331 8.58331 3.54056 8.58331 8.58331 3.54056 3.54056 8.58331 8.58331 3.54056 3.54056 8.58331 8.58331 3.54056 14.8065 27.2537 29.3999 0.1 0.1 0.1 0.1 0.1 0.1 0.1 0.1 0.1 0.1 0.1 0.1 0.1 0.1 0.1 0.1 0.1 0.1 0.1 0.1 0.1 0.1 0.1 0.1 0.1 0.1 0.1 0.1 0.1 0.1 0.1 0.1 0.1 0.1 0.1 0.1 0.1 0.1 0.1 0.1 0.1 0.1 0.1 0.1 0.1 0.1 0.1 0.1 0.1 0.1 0.1 0.1 0.1 0.1 0.1 0.1 0.1 0.1 0.1 0.1 0.1 0.1 0.1 0.1 0.1 0.1 0.1 0.1 0.1 0.1 0.1 0.1 0.1 0.1 0.1 0.1 0.1 0.1 0.1 0.1 0.1 0.1 0.1 0.1 0.1 0.1 0.1 0.1 0.1 0.1 0.1 0.1 0.1 0.1 0.1 0.1 0.1 0.1 0.1 0.1 0.1 0.1 0.1 0.1 0.1 0.1 0.1 0.1 0.1 0.1 0.1 0.1 0.1 0.1 0.1 0.1 0.1 0.1 0.1 0.1 0.1 0.1 0.1 0.1 0.1 0.1 0.1 0.1 0.1 0.1 0.1 0.1 0.1 0.1 0.1 0.1 0.1 0.1 0.1 0.1 0.1 0.1 0.1 0.1 0.1 0.1 0.1 0.1 0.1 0.1 0.1 0.1 0.1 0.1 0.1 0.1 0.1 0.1 0.1 0.1 0.1 0.1 0.1 0.1 0.1 0.1 0.1 0.1 0.1 0.1 0.1 0.1 0.1 0.1 0.1 0.1 0.1 0.1 0.1 0.1 0.1 0.1 0.1 0.1 0.1 0.1 0.1 0.1 0.1 0.1 0.1 0.1 0.1 0.1 0.1 0.1 0.1 0.1 0.1 0.1 0.1 0.1 0.1 0.1 0.1 0.1 0.1 0.1 0.1 0.1 0.1 0.1 0.1 0.1 0.1 0.1 0.1 0.1 0.1 0.1 0.1 0.1 0.1 0.1 0.1 0.1 0.1 0.1 0.1 0.1 0.1 0.1 0.1 0.1 0.1 0.1 0.1 0.1 0.1 0.1 0.1 0.1 0.1 0.1 0.1 0.1 0.1 0.1 0.1 0.1 0.1 0.1 0.1 0.1 0.1 0.1 0.1 0.1 0.1 0.1 0.1 0.1 0.1 0.1 0.1 0.1 0.1 0.1 0.1 0.1 0.1 0.1 0.1 0.1 0.1 0.1 0.1 0.1 0.1 0.1 0.1 0.1 0.1 0.1 0.1 0.1 0.1 0.1 0.1 0.1 0.1 0.1 0.1 0.1 0.1 0.1 0.1 0.1 0.1 0.1 0.1 0.1 0.1 0.1 0.1 0.1 0.1 0.1 0.1 0.1 0.1 0.1 0.1 0.1 0.1 0.1 0.1 0.1 0.1 0.1 0.1 0.1 0.1 0.1 0.1 0.1 0.1 0.1 
</DataArray>

<DataArray type="Float32" Name="Density" format="ascii">
1000.04 1000.04 1000.02 1000.01 1000.01 1000 1000.01 1000.01 1000 1000 1000.01 1000.01 1000.01 1000.01 1000.01 1000.01 1000.01 1000.01 1000.01 1000 1000.01 1000.01 1000 1000 1000.01 1000.01 1000 1000.01 1000.01 1000 1000 1000.01 1000.01 1000 1000 1000.01 1000.01 1000 1000.02 1000.03 1000.03 1000.02 1000.03 1000.01 1000.01 1000.01 1000 1000.01 1000.01 1000 1000 1000.01 1000.01 1000.01 1000.01 1000.01 1000.01 1000.01 1000.01 1000.01 1000 1000.01 1000.01 1000 1000 1000.01 1000.01 1000 1000.01 1000.01 1000 1000 1000.01 1000.01 1000 1000 1000.01 1000.01 1000 1000.02 1000.03 1000.03 1000.03 1000.04 1000.02 1000 1000 1000 1000 1000 1000 1000 1000 1000 1000 1000.01 1000 1000 1000 1000 1000 1000 1000 1000 1000 1000 1000 1000 1000 1000 1000 1000 1000 1000 1000 1000 1000 1000 1000 1000 1000.01 1000.02 1000.02 1000.01 1000.01 1000 1000 1000 1000 1000 1000 1000 1000 1000 1000 1000 1000 1000 1000 1000 1000 1000 1000 1000 1000 1000 1000 1000 1000 1000 1000 1000 1000 1000 1000 1000 1000 1000 1000 1000 1000 1000 1000.01 1000.01 1000.01 1000.01 1000 1000 1000 1000 1000 1000 1000 1000 1000 1000 1000 1000 1000 1000 1000 1000 1000 1000 1000 1000 1000 1000 1000 1000 1000 1000 1000 1000 1000 1000 1000 1000 1000 1000 1000 1000 1000 1000.01 1000.01 1000 1000 1000 1000 1000 1000 1000 1000 1000 1000 1000 1000 1000 1000 1000 1000 1000 1000 1000 1000 1000 1000 1000 1000 1000 1000 1000 1000 1000 1000 1000 1000 1000 1000 1000 1000 1000 1000 1000 1000 1000 1000.01 1000.01 1000 1000 1000 1000 1000 1000 1000 1000 1000 1000 1000 1000 1000 1000 1000 1000 1000 1000 1000 1000 1000 1000 1000 1000 1000 1000 1000 1000 1000 1000 1000 1000 1000 1000 1000 1000 1000 1000.01 1000.01 1000.01 1000.01 1000 1000 1000 1000 1000 1000 1000 1000 1000 1000 1000 1000 1000 1000 1000 1000 1000 1000 1000 1000 1000 1000 1000 1000 1000 1000 1000 1000 1000 1000 1000 1000 1000 1000 1000 1000 1000 1000.01 1000.01 1000 1000 1000 1000 1000 1000 1000 1000 1000 1000 1000 1000 1000 1000 1000 1000 1000 1000 1000 1000 1000 1000 1000 1000 1000 1000 1000 1000 1000 1000 1000 1000 1000 1000 1000 1000 1000 1000 1000 1000 1000 1000 1000 1000 1000 1000 1000 1000 1000 1000 1000 1000 1000 1000 1000 1000 1000 1000 1000 1000 1000 1000 1000 1000 1000 1000 1000 1000 1000 1000 1000 1000 1000 1000 1000 1000 1000 1000 1000 1000 1000 1000 1000.01 1000.01 1000 1000 1000 1000 1000 1000 1000 1000 1000 1000 1000 1000 1000 1000 1000 1000 1000 1000 1000 1000 1000 1000 1000 1000 1000 1000 1000 1000 1000 1000 1000 1000 1000 1000 1000 1000 1000 1000.01 1000.01 1000.01 1000.01 1000 1000 1000 1000 1000 1000 1000 1000 1000 1000 1000 1000 1000 1000 1000 1000 1000 1000 1000 1000 1000 1000 1000 1000 1000 1000 1000 1000 1000 1000 1000 1000 1000 1000 1000 1000 1000 1000.01 1000.01 1000.01 1000.01 1000 1000 1000 1000 1000 1000 1000 1000 1000 1000 1000 1000 1000 1000 1000 1000 1000 1000 1000 1000 1000 1000 1000 1000 1000 1000 1000 1000 1000 1000 1000 1000 1000 1000 1000 1000 1000 1000.01 1000.01 1000.01 1000.01 1000.01 1000 1000 1000 1000 1000 1000 1000 1000 1000 1000 1000 1000 1000 1000 1000 1000 1000 1000 1000 1000 1000 1000 1000 1000 1000 1000 1000 1000 1000 1000 1000 1000 1000 1000 1000 1000.01 1000.01 1000.01 1000.01 1000.01 1000 1000 1000 1000 1000 1000 1000 1000 1000 1000 1000 1000 1000 1000 1000 1000 1000 1000 1000 1000 1000 1000 1000 1000 1000 1000 1000 1000 1000 1000 1000 1000 1000 1000 1000 1000 1000 1000.01 1000.01 1000.01 1000.01 1000 1000 1000 1000 1000 1000 1000 1000 1000 1000 1000 1000 1000 1000 1000 1000 1000 1000 1000 1000 1000 1000 1000 1000 1000 1000 1000 1000 1000 1000 1000 1000 1000 1000 1000 1000 1000 1000.01 1000.01 1000.01 1000.01 1000 1000 1000 1000 1000 1000 1000 1000 1000 1000 1000 1000 1000 1000 1000 1000 1000 1000 1000 1000 1000 1000 1000 1000 1000 1000 1000 1000 1000 1000 1000 1000 1000 1000 1000 1000 1000 1000.01 1000.01 1000.01 1000.01 1000 1000 1000 1000 1000 1000 1000 1000 1000 1000 1000 1000 1000 1000 1000 1000 1000 1000 1000 1000 1000 1000 1000 1000 1000 1000 1000 1000 1000 1000 1000 1000 1000 1000 1000 1000 1000 1000.01 1000.01 1000.01 1000.01 1000 1000 1000 1000 1000 1000 1000 1000 1000 1000 1000 1000 1000 1000 1000 1000 1000 1000 1000 1000 1000 1000 1000 1000 1000 1000 1000 1000 1000 1000 1000 1000 1000 1000 1000 1000 1000 1000.01 1000.01 1000 1000 1000 1000 1000 1000 1000 1000 1000 1000 1000 1000 1000 1000 1000 1000 1000 1000 1000 1000 1000 1000 1000 1000 1000 1000 1000 1000 1000 1000 1000 1000 1000 1000 1000 1000 1000 1000 1000 1000 1000 1000.01 1000.01 1000 1000 1000 1000 1000 1000 1000 1000 1000 1000 1000 1000 1000 1000 1000 1000 1000 1000 1000 1000 1000 1000 1000 1000 1000 1000 1000 1000 1000 1000 1000 1000 1000 1000 1000 1000 1000 1000.01 1000.01 1000.01 1000.01 1000 1000 1000 1000 1000 1000 1000 1000 1000 1000 1000 1000 1000 1000 1000 1000 1000 1000 1000 1000 1000 1000 1000 1000 1000 1000 1000 1000 1000 1000 1000 1000 1000 1000 1000 1000 1000 1000.01 1000.01 1000 1000 1000 1000 1000 1000 1000 1000 1000 1000 1000 1000 1000 1000 1000 1000 1000 1000 1000 1000 1000 1000 1000 1000 1000 1000 1000 1000 1000 1000 1000 1000 1000 1000 1000 1000 1000 1000 1000 1000 1000 1000 1000 1000 1000 1000 1000 1000 1000 1000 1000 1000 1000 1000 1000 1000 1000 1000 1000 1000 1000 1000 1000 1000 1000 1000 1000 1000 1000 1000 1000 1000 1000 1000 1000 1000 1000 1000 1000 1000 1000 1000 1000.01 1000.01 1000 1000 1000 1000 1000 1000 1000 1000 1000 1000 1000 1000 1000 1000 1000 1000 1000 1000 1000 1000 1000 1000 1000 1000 1000 1000 1000 1000 1000 1000 1000 1000 1000 1000 1000 1000 1000 1000.01 1000.01 1000.01 1000.01 1000 1000 1000 1000 1000 1000 1000 1000 1000 1000 1000 1000 1000 1000 1000 1000 1000 1000 1000 1000 1000 1000 1000 1000 1000 1000 1000 1000 1000 1000 1000 1000 1000 1000 1000 1000 1000 1000.01 1000.01 1000 1000 1000 1000 1000 1000 1000 1000 1000 1000 1000 1000 1000 1000 1000 1000 1000 1000 1000 1000 1000 1000 1000 1000 1000 1000 1000 1000 1000 1000 1000 1000 1000 1000 1000 1000 1000 1000 1000 1000 1000 1000.01 1000.01 1000 1000 1000 1000 1000 1000 1000 1000 1000 1000 1000 1000 1000 1000 1000 1000 1000 1000 1000 1000 1000 1000 1000 1000 1000 1000 1000 1000 1000 1000 1000 1000 1000 1000 1000 1000 1000 1000.01 1000.01 1000.01 1000.01 1000 1000 1000 1000 1000 1000 1000 1000 1000 1000 1000 1000 1000 1000 1000 1000 1000 1000 1000 1000 1000 1000 1000 1000 1000 1000 1000 1000 1000 1000 1000 1000 1000 1000 1000 1000 1000 1000.01 1000.01 1000 1000 1000 1000 1000 1000 1000 1000 1000 1000 1000 1000 1000 1000 1000 1000 1000 1000 1000 1000 1000 1000 1000 1000 1000 1000 1000 1000 1000 1000 1000 1000 1000 1000 1000 1000 1000 1000 1000 1000 1000 1000 1000 1000 1000 1000 1000 1000 1000 1000 1000 1000 1000 1000 1000 1000 1000 1000 1000 1000 1000 1000 1000 1000 1000 1000 1000 1000 1000 1000 1000 1000 1000 1000 1000 1000 1000 1000 1000 1000 1000 1000 1000.01 1000.01 1000 1000 1000 1000 1000 1000 1000 1000 1000 1000 1000 1000 1000 1000 1000 1000 1000 1000 1000 1000 1000 1000 1000 1000 1000 1000 1000 1000 1000 1000 1000 1000 1000 1000 1000 1000 1000 1000.01 1000.01 1000.01 1000.01 1000 1000 1000 1000 1000 1000 1000 1000 1000 1000 1000 1000 1000 1000 1000 1000 1000 1000 1000 1000 1000 1000 1000 1000 1000 1000 1000 1000 1000 1000 1000 1000 1000 1000 1000 1000 1000 1000.01 1000.01 1000 1000 1000 1000 1000 1000 1000 1000 1000 1000 1000 1000 1000 1000 1000 1000 1000 1000 1000 1000 1000 1000 1000 1000 1000 1000 1000 1000 1000 1000 1000 1000 1000 1000 1000 1000 1000 1000 1000 1000 1000 1000 1000 1000 1000 1000 1000 1000 1000 1000 1000 1000 1000 1000 1000 1000 1000 1000 1000 1000 1000 1000 1000 1000 1000 1000 1000 1000 1000 1000 1000 1000 1000 1000 1000 1000 1000 1000 1000 1000 1000 1000 1000.01 1000.01 1000 1000 1000 1000 1000 1000 1000 1000 1000 1000 1000 1000 1000 1000 1000 1000 1000 1000 1000 1000 1000 1000 1000 1000 1000 1000 1000 1000 1000 1000 1000 1000 1000 1000 1000 1000 1000 1000.01 1000.01 1000.01 1000.01 1000 1000 1000 1000 1000 1000 1000 1000 1000 1000 1000 1000 1000 1000 1000 1000 1000 1000 1000 1000 1000 1000 1000 1000 1000 1000 1000 1000 1000 1000 1000 1000 1000 1000 1000 1000 1000 1000.01 1000.01 1000 1000 1000 1000 1000 1000 1000 1000 1000 1000 1000 1000 1000 1000 1000 1000 1000 1000 1000 1000 1000 1000 1000 1000 1000 1000 1000 1000 1000 1000 1000 1000 1000 1000 1000 1000 1000 1000 1000 1000 1000 1000.02 1000.02 1000.01 1000 1000 1000 1000 1000 1000 1000 1000 1000 1000 1000.01 1000 1000 1000 1000 1000 1000 1000 1000 1000 1000 1000 1000 1000 1000 1000 1000 1000 1000 1000 1000 1000 1000 1000 1000 1000.01 1000.02 1000.02 1000.03 1000.03 1000.02 1000.01 1000.01 1000 1000.01 1000.01 1000 1000 1000.01 1000.01 1000.01 1000.01 1000.01 1000.01 1000.01 1000.01 1000.01 1000 1000.01 1000.01 1000 1000 1000.01 1000.01 1000 1000.01 1000.01 1000 1000 1000.01 1000.01 1000 1000 1000.01 1000.01 1000 1000.02 1000.03 1000.03 1000.03 1000.03 1000.02 1000.01 1000.01 1000 1000.01 1000.01 1000 1000 1000.01 1000.01 1000.01 1000.01 1000.01 1000.01 1000.01 1000.01 1000.01 1000 1000.01 1000.01 1000 1000 1000.01 1000.01 1000 1000.01 1000.01 1000 1000 1000.01 1000.01 1000 1000 1000.01 1000.01 1000 1000.02 1000.03 1000.03 1000 1000 1000 1000 1000 1000 1000 1000 1000 1000 1000 1000 1000 1000 1000 1000 1000 1000 1000 1000 1000 1000 1000 1000 1000 1000 1000 1000 1000 1000 1000 1000 1000 1000 1000 1000 1000 1000 1000 1000 1000 1000 1000 1000 1000 1000 1000 1000 1000 1000 1000 1000 1000 1000 1000 1000 1000 1000 1000 1000 1000 1000 1000 1000 1000 1000 1000 1000 1000 1000 1000 1000 1000 1000 1000 1000 1000 1000 1000 1000 1000 1000 1000 1000 1000 1000 1000 1000 1000 1000 1000 1000 1000 1000 1000 1000 1000 1000 1000 1000 1000 1000 1000 1000 1000 1000 1000 1000 1000 1000 1000 1000 1000 1000 1000 1000 1000 1000 1000 1000 1000 1000 1000 1000 1000 1000 1000 1000 1000 1000 1000 1000 1000 1000 1000 1000 1000 1000 1000 1000 1000 1000 1000 1000 1000 1000 1000 1000 1000 1000 1000 1000 1000 1000 1000 1000 1000 1000 1000 1000 1000 1000 1000 1000 1000 1000 1000 1000 1000 1000 1000 1000 1000 1000 1000 1000 1000 1000 1000 1000 1000 1000 1000 1000 1000 1000 1000 1000 1000 1000 1000 1000 1000 1000 1000 1000 1000 1000 1000 1000 1000 1000 1000 1000 1000 1000 1000 1000 1000 1000 1000 1000 1000 1000 1000 1000 1000 1000 1000 1000 1000 1000 1000 1000 1000 1000 1000 1000 1000 1000 1000 1000 1000 1000 1000 1000 1000 1000 1000 1000 1000 1000 1000 1000 1000 1000 1000 1000 1000 1000 1000 1000 1000 1000 1000 1000 1000 1000 1000 1000 1000 1000 1000 1000 1000 1000 1000 1000 1000 1000 1000 1000 1000 1000 1000 1000 1000 1000 1000 1000 1000 1000 1000 1000 1000 1000 1000 1000 1000 1000 1000 1000 1000 1000 1000 1000 1000 1000 1000 1000 1000 1000 1000 1000 1000 1000 1000 1000 1000 1000 1000 1000 1000 1000 1000 1000 1000 1000 1000 1000 1000 1000 1000 1000 1000 1000 1000 1000 
</DataArray>
<DataArray type="Float32" Name="Velocity" NumberOfComponents="3" format="ascii">
0.0040776031 0.0060280552 0
0.0011133477 0.0058642542 0
-0.00032825529 0.0059507075 0
4.5649394e-06 0.00503028 0
-3.5144618e-07 0.0041807634 0
0 0.0026670762 0
1.8332781e-07 0.004194811 0
-1.8332835e-07 0.004194811 0
5.5157072e-12 0.0026670801 0
1.7075836e-11 0.0026670862 0
3.765883e-07 0.0041948082 0
-1.5722467e-08 0.0041948096 0
1.7842785e-07 0.0041948096 0
0 0.0052004224 0
-1.6767316e-07 0.0041948096 0
-1.5740561e-07 0.0041948096 0
1.4955068e-08 0.0041948096 0
-2.5217372e-07 0.0041948096 0
2.3021784e-08 0.0041948082 0
0 0.0026670762 0
2.5767127e-07 0.0041948082 0
-2.5767127e-07 0.0041948082 0
-2.4357414e-11 0.0026670822 0
2.4357414e-11 0.0026670822 0
2.5767127e-07 0.0041948082 0
-2.5767127e-07 0.0041948082 0
0 0.0026670762 0
2.5767127e-07 0.0041948082 0
-2.5767127e-07 0.0041948082 0
-2.4357414e-11 0.0026670822 0
2.4357414e-11 0.0026670822 0
2.5767127e-07 0.0041948082 0
-2.5767127e-07 0.0041948082 0
-2.4357414e-11 0.0026670822 0
2.4357414e-11 0.0026670822 0
2.5767127e-07 0.0041948082 0
-2.578341e-07 0.0041948082 0
4.0446974e-10 0.0026671242 0
-0.0001094246 0.0041683195 0
-0.0011681453 0.0040109274 0
-0.0042167301 0.0042121173 0
0.0039932104 0.0015706925 0
0.0012713016 0.0016199794 0
0.00012649213 0.0014687235 0
7.4100644e-06 0.0011834815 0
9.1719703e-06 0.0011854832 0
-2.0022271e-09 0.00065560843 0
-8.8876916e-08 0.0011903882 0
8.8876533e-08 0.0011903882 0
-4.5853722e-07 0.00066869205 0
1.9484726e-07 0.00067752576 0
-1.6283498e-07 0.0011903882 0
-1.5709395e-08 0.0011903882 0
-1.6554877e-07 0.0011903867 0
0 0.0015328734 0
-4.3973455e-07 0.0011903867 0
4.5388268e-07 0.0011903882 0
1.4940255e-08 0.0011903882 0
1.5221681e-07 0.0011903882 0
1.6283724e-07 0.0011903882 0
-2.3393294e-11 0.00065561157 0
-3.1163128e-07 0.0011903882 0
3.1163128e-07 0.0011903882 0
-2.0515817e-07 0.00067307812 0
2.0515817e-07 0.00067307812 0
-3.1163128e-07 0.0011903882 0
3.1163128e-07 0.0011903882 0
6.1845636e-15 0.00065561157 0
-3.1163128e-07 0.0011903882 0
3.1163128e-07 0.0011903882 0
-2.0515817e-07 0.00067307812 0
2.0515817e-07 0.00067307812 0
-3.1163128e-07 0.0011903882 0
3.1163128e-07 0.0011903882 0
-2.0515817e-07 0.00067307812 0
2.0515817e-07 0.00067307812 0
-3.1163128e-07 0.0011903882 0
3.1163711e-07 0.0011903882 0
-3.6665353e-06 0.00070023828 0
-0.00011844996 0.001204286 0
-0.001271423 0.001282229 0
-0.004006024 0.0011592903 0
0.0039592008 0.00028228341 0
0.0012566395 0.00034359214 0
0.00013367423 0.00011533869 0
6.5204422e-06 3.6119247e-05 0
8.3947759e-07 2.3231143e-05 0
7.7145728e-08 6.8964473e-06 0
9.8733942e-08 2.3544715e-05 0
-6.5029537e-09 2.3544615e-05 0
1.0240765e-07 6.8985141e-06 0
-1.4084387e-07 6.9010371e-06 0
-2.256394e-07 2.3544666e-05 0
-1.9017286e-07 2.354452e-05 0
4.084971e-07 2.3544482e-05 0
0 6.1940205e-05 0
-4.0822101e-07 2.3544482e-05 0
1.9146051e-07 2.354452e-05 0
-3.1049019e-08 2.354452e-05 0
2.3433894e-07 2.354452e-05 0
9.2444708e-08 2.354458e-05 0
-6.1523153e-08 6.8966906e-06 0
-1.6788057e-07 2.3544664e-05 0
1.6790014e-07 2.3544664e-05 0
1.3067925e-07 6.8993086e-06 0
-1.3067925e-07 6.8993086e-06 0
-1.6790014e-07 2.3544664e-05 0
1.6788744e-07 2.3544664e-05 0
-3.1576518e-15 6.8966078e-06 0
-1.6788744e-07 2.3544664e-05 0
1.6790014e-07 2.3544664e-05 0
1.3067925e-07 6.8993086e-06 0
-1.3067925e-07 6.8993086e-06 0
-1.6790014e-07 2.3544664e-05 0
1.6790014e-07 2.3544664e-05 0
1.3067925e-07 6.8993086e-06 0
-1.3067925e-07 6.8993086e-06 0
-1.6790014e-07 2.3544664e-05 0
1.621483e-08 2.3544793e-05 0
-2.3807982e-06 6.9145053e-06 0
-2.6586302e-05 3.04278e-05 0
-0.0011748667 9.951416e-05 0
-0.0041420544 9.91052e-05 0
0.0041946149 2.4602932e-05 0
0.0011914179 2.3016168e-05 0
2.3689458e-05 6.5501836e-06 0
3.6374402e-07 8.7466981e-07 0
4.9112248e-09 3.0200286e-07 0
0 9.2001065e-09 0
-4.7743969e-09 3.1011714e-07 0
4.7743738e-09 3.1011714e-07 0
-4.0328022e-15 9.2002814e-09 0
2.7804166e-16 9.2005044e-09 0
-4.7742716e-09 3.1011714e-07 0
4.7749102e-09 3.1011709e-07 0
-4.7690887e-09 3.1011697e-07 0
0 2.8435691e-06 0
4.7690887e-09 3.1011697e-07 0
-4.7749102e-09 3.1011709e-07 0
4.7744058e-09 3.1011709e-07 0
-4.7744524e-09 3.1011709e-07 0
4.7744058e-09 3.1011712e-07 0
0 9.2001908e-09 0
-4.7743374e-09 3.1011712e-07 0
4.7743374e-09 3.1011712e-07 0
0 9.2003338e-09 0
0 9.2003338e-09 0
-4.7743374e-09 3.1011712e-07 0
4.7743374e-09 3.1011712e-07 0
0 9.2002006e-09 0
-4.7743374e-09 3.1011712e-07 0
4.7743374e-09 3.1011712e-07 0
0 9.2003338e-09 0
0 9.2003338e-09 0
-4.7743374e-09 3.1011712e-07 0
4.7743374e-09 3.1011712e-07 0
0 9.2003338e-09 0
0 9.2003338e-09 0
-4.7743374e-09 3.1011712e-07 0
4.7746562e-09 3.101172e-07 0
-3.1737744e-07 9.1583656e-09 0
-2.3549925e-05 2.3833873e-06 0
-0.001190596 8.9835412e-06 0
-0.0041952282 5.3737008e-06 0
0.0041807145 7.8162693e-06 0
0.0011854889 1.3051788e-05 0
2.3231451e-05 3.606641e-07 0
3.0200295e-07 5.1786326e-09 0
4.8807709e-09 4.8807709e-09 0
0 4.7760609e-09 0
-4.7746509e-09 4.8863473e-09 0
4.7746509e-09 4.8863473e-09 0
0 4.7760609e-09 0
0 4.7760609e-09 0
-4.7746509e-09 4.8863473e-09 0
4.7746509e-09 4.8863473e-09 0
-4.7746509e-09 4.8863469e-09 0
0 7.2314705e-09 0
4.7746509e-09 4.8863469e-09 0
-4.7746509e-09 4.8863473e-09 0
4.7746509e-09 4.8863473e-09 0
-4.7746509e-09 4.8863473e-09 0
4.7746509e-09 4.8863473e-09 0
0 4.7760609e-09 0
-4.7746562e-09 4.8863473e-09 0
4.7746562e-09 4.8863473e-09 0
0 4.7760609e-09 0
0 4.7760609e-09 0
-4.7746562e-09 4.8863473e-09 0
4.7746562e-09 4.8863473e-09 0
0 4.7760609e-09 0
-4.7746562e-09 4.8863473e-09 0
4.7746562e-09 4.8863473e-09 0
0 4.7760609e-09 0
0 4.7760609e-09 0
-4.7746562e-09 4.8863473e-09 0
4.7746562e-09 4.8863473e-09 0
0 4.7760609e-09 0
0 4.7760609e-09 0
-4.7746562e-09 4.8863473e-09 0
4.7746562e-09 4.8863473e-09 0
-3.0669185e-07 4.7751225e-09 0
-2.3231831e-05 3.2243781e-07 0
-0.0011854756 9.0429103e-06 0
-0.0041807145 4.1998778e-06 0
0.0026670862 -4.2083999e-11 0
0.00067751767 8.1260987e-07 0
6.900751e-06 4.8752856e-08 0
9.2004235e-09 0 0
4.7760609e-09 0 0
0 0 0
-4.7746509e-09 0 0
4.7746509e-09 0 0
0 0 0
0 0 0
-4.7746509e-09 0 0
4.7746509e-09 0 0
-4.7746509e-09 0 0
0 0 0
4.7746509e-09 0 0
-4.7746509e-09 0 0
4.7746509e-09 0 0
-4.7746509e-09 0 0
4.7746509e-09 0 0
0 0 0
-4.7746562e-09 0 0
4.7746562e-09 0 0
0 0 0
0 0 0
-4.7746562e-09 0 0
4.7746562e-09 0 0
0 0 0
-4.7746562e-09 0 0
4.7746562e-09 0 0
0 0 0
0 0 0
-4.7746562e-09 0 0
4.7746562e-09 0 0
0 0 0
0 0 0
-4.7746562e-09 0 0
4.7746562e-09 0 0
-1.3705052e-08 0 0
-6.8980635e-06 3.5943401e-08 0
-0.00066864688 2.6972617e-07 0
-0.0026671125 -1.0698923e-11 0
0.004194811 1.833281e-07 0
0.0011903882 -8.8876916e-08 0
2.3544715e-05 9.8722403e-08 0
3.1011714e-07 -4.7743969e-09 0
4.8863473e-09 -4.7746509e-09 0
0 -4.7746509e-09 0
-4.7746509e-09 -4.7746509e-09 0
4.7746509e-09 -4.7746509e-09 0
0 -4.7746509e-09 0
0 -4.7746509e-09 0
-4.7746509e-09 -4.7746509e-09 0
4.7746509e-09 -4.7746509e-09 0
-4.7746509e-09 -4.7746509e-09 0
0 -4.7746509e-09 0
4.7746509e-09 -4.7746509e-09 0
-4.7746509e-09 -4.7746509e-09 0
4.7746509e-09 -4.7746509e-09 0
-4.7746509e-09 -4.7746509e-09 0
4.7746509e-09 -4.7746509e-09 0
0 -4.7746509e-09 0
-4.7746562e-09 -4.7746509e-09 0
4.7746562e-09 -4.7746509e-09 0
0 -4.7746509e-09 0
0 -4.7746509e-09 0
-4.7746562e-09 -4.7746509e-09 0
4.7746562e-09 -4.7746509e-09 0
0 -4.7746509e-09 0
-4.7746562e-09 -4.7746509e-09 0
4.7746562e-09 -4.7746509e-09 0
0 -4.7746509e-09 0
0 -4.7746509e-09 0
-4.7746562e-09 -4.7746509e-09 0
4.7746562e-09 -4.7746509e-09 0
0 -4.7746509e-09 0
0 -4.7746509e-09 0
-4.7746562e-09 -4.7746509e-09 0
4.7746562e-09 -4.7746509e-09 0
-3.1481161e-07 -4.7743969e-09 0
-2.3545166e-05 9.8717884e-08 0
-0.0011903654 -8.887686e-08 0
-0.0041948059 1.8332771e-07 0
0.004194811 -1.8332835e-07 0
0.0011903882 8.8876533e-08 0
2.3544615e-05 -6.502952e-09 0
3.1011714e-07 4.7743738e-09 0
4.8863473e-09 4.7746509e-09 0
0 4.7746509e-09 0
-4.7746509e-09 4.7746509e-09 0
4.7746509e-09 4.7746509e-09 0
0 4.7746509e-09 0
0 4.7746509e-09 0
-4.7746509e-09 4.7746509e-09 0
4.7746509e-09 4.7746509e-09 0
-4.7746509e-09 4.7746509e-09 0
0 4.7746509e-09 0
4.7746509e-09 4.7746509e-09 0
-4.7746509e-09 4.7746509e-09 0
4.7746509e-09 4.7746509e-09 0
-4.7746509e-09 4.7746509e-09 0
4.7746509e-09 4.7746509e-09 0
0 4.7746509e-09 0
-4.7746562e-09 4.7746509e-09 0
4.7746562e-09 4.7746509e-09 0
0 4.7746509e-09 0
0 4.7746509e-09 0
-4.7746562e-09 4.7746509e-09 0
4.7746562e-09 4.7746509e-09 0
0 4.7746509e-09 0
-4.7746562e-09 4.7746509e-09 0
4.7746562e-09 4.7746509e-09 0
0 4.7746509e-09 0
0 4.7746509e-09 0
-4.7746562e-09 4.7746509e-09 0
4.7746562e-09 4.7746509e-09 0
0 4.7746509e-09 0
0 4.7746509e-09 0
-4.7746562e-09 4.7746509e-09 0
4.7746562e-09 4.7746509e-09 0
-3.1481161e-07 4.7743738e-09 0
-2.3545064e-05 -6.5029804e-09 0
-0.0011903654 8.8876483e-08 0
-0.0041948059 -1.8332825e-07 0
0.0026670801 5.5157072e-12 0
0.00066869205 -4.5853722e-07 0
6.8985141e-06 1.0240765e-07 0
9.2002814e-09 -4.0328022e-15 0
4.7760609e-09 0 0
0 0 0
-4.7746509e-09 0 0
4.7746509e-09 0 0
0 0 0
0 0 0
-4.7746509e-09 0 0
4.7746509e-09 0 0
-4.7746509e-09 0 0
0 0 0
4.7746509e-09 0 0
-4.7746509e-09 0 0
4.7746509e-09 0 0
-4.7746509e-09 0 0
4.7746509e-09 0 0
0 0 0
-4.7746562e-09 0 0
4.7746562e-09 0 0
0 0 0
0 0 0
-4.7746562e-09 0 0
4.7746562e-09 0 0
0 0 0
-4.7746562e-09 0 0
4.7746562e-09 0 0
0 0 0
0 0 0
-4.7746562e-09 0 0
4.7746562e-09 0 0
0 0 0
0 0 0
-4.7746562e-09 0 0
4.7746562e-09 0 0
-1.3705176e-08 -4.0300985e-15 0
-6.8988334e-06 1.0240765e-07 0
-0.00066868198 -4.5853722e-07 0
-0.0026671137 5.5154097e-12 0
0.0026670862 1.7075836e-11 0
0.00067752576 1.9484727e-07 0
6.9010371e-06 -1.4084387e-07 0
9.2005044e-09 2.7804166e-16 0
4.7760609e-09 0 0
0 0 0
-4.7746509e-09 0 0
4.7746509e-09 0 0
0 0 0
0 0 0
-4.7746509e-09 0 0
4.7746509e-09 0 0
-4.7746509e-09 0 0
0 0 0
4.7746509e-09 0 0
-4.7746509e-09 0 0
4.7746509e-09 0 0
-4.7746509e-09 0 0
4.7746509e-09 0 0
0 0 0
-4.7746562e-09 0 0
4.7746562e-09 0 0
0 0 0
0 0 0
-4.7746562e-09 0 0
4.7746562e-09 0 0
0 0 0
-4.7746562e-09 0 0
4.7746562e-09 0 0
0 0 0
0 0 0
-4.7746562e-09 0 0
4.7746562e-09 0 0
0 0 0
0 0 0
-4.7746562e-09 0 0
4.7746562e-09 0 0
-1.37054e-08 2.7786172e-16 0
-6.9013549e-06 -1.4084384e-07 0
-0.00067751587 1.9484649e-07 0
-0.0026671197 1.7075142e-11 0
0.0041948082 3.765883e-07 0
0.0011903882 -1.6283498e-07 0
2.3544666e-05 -2.2563938e-07 0
3.1011714e-07 -4.7742716e-09 0
4.8863473e-09 -4.7746509e-09 0
0 -4.7746509e-09 0
-4.7746509e-09 -4.7746509e-09 0
4.7746509e-09 -4.7746509e-09 0
0 -4.7746509e-09 0
0 -4.7746509e-09 0
-4.7746509e-09 -4.7746509e-09 0
4.7746509e-09 -4.7746509e-09 0
-4.7746509e-09 -4.7746509e-09 0
0 -4.7746509e-09 0
4.7746509e-09 -4.7746509e-09 0
-4.7746509e-09 -4.7746509e-09 0
4.7746509e-09 -4.7746509e-09 0
-4.7746509e-09 -4.7746509e-09 0
4.7746509e-09 -4.7746509e-09 0
0 -4.7746509e-09 0
-4.7746562e-09 -4.7746509e-09 0
4.7746562e-09 -4.7746509e-09 0
0 -4.7746509e-09 0
0 -4.7746509e-09 0
-4.7746562e-09 -4.7746509e-09 0
4.7746562e-09 -4.7746509e-09 0
0 -4.7746509e-09 0
-4.7746562e-09 -4.7746509e-09 0
4.7746562e-09 -4.7746509e-09 0
0 -4.7746509e-09 0
0 -4.7746509e-09 0
-4.7746562e-09 -4.7746509e-09 0
4.7746562e-09 -4.7746509e-09 0
0 -4.7746509e-09 0
0 -4.7746509e-09 0
-4.7746562e-09 -4.7746509e-09 0
4.7746562e-09 -4.7746509e-09 0
-3.1481161e-07 -4.7742716e-09 0
-2.3545123e-05 -2.2563938e-07 0
-0.0011903654 -1.6283485e-07 0
-0.0041948031 3.765889e-07 0
0.0041948096 -1.5722467e-08 0
0.0011903882 -1.5709402e-08 0
2.354452e-05 -1.9017286e-07 0
3.1011709e-07 4.7749102e-09 0
4.8863473e-09 4.7746509e-09 0
0 4.7746509e-09 0
-4.7746509e-09 4.7746509e-09 0
4.7746509e-09 4.7746509e-09 0
0 4.7746509e-09 0
0 4.7746509e-09 0
-4.7746509e-09 4.7746509e-09 0
4.7746509e-09 4.7746509e-09 0
-4.7746509e-09 4.7746509e-09 0
0 4.7746509e-09 0
4.7746509e-09 4.7746509e-09 0
-4.7746509e-09 4.7746509e-09 0
4.7746509e-09 4.7746509e-09 0