<?xml version="1.0" ?>

<VTKFile type="UnstructuredGrid" version="0.1" byte_order="BigEndian">

<UnstructuredGrid>

<Piece NumberOfPoints= " 2009 " NumberOfCells=" 2009 ">

<PointData Scalars="Pressure" Vectors="Velocity">

<DataArray type="Float32" Name="Pressure" format="ascii">

14.27 15.1284 15.9868 13.9481 12.8752 7.93955 6.86661 6.86661 7.61767 7.61767 6.86661 6.86661 6.86661 6.97391 6.86661 6.86661 6.86661 6.86661 6.86661 6.97391 6.86661 6.86661 7.61767 7.61767 6.86661 6.86661 7.0812 6.86661 6.86661 7.61767 7.61767 6.86661 6.86661 7.61767 7.61767 11.0511 16.7379 6.86661 13.4116 9.97815 16.6306 19.8497 19.4205 17.489 10.9438 20.9227 4.07701 9.22708 9.22708 5.90098 5.90098 9.22708 9.11979 9.11979 7.93955 9.11979 9.11979 9.11979 9.11979 9.22708 4.07701 9.22708 9.22708 6.00827 6.00827 9.22708 9.22708 4.07701 9.22708 9.22708 6.00827 6.00827 9.22708 9.22708 6.00827 6.00827 9.22708 18.0255 7.18849 14.1627 14.6992 10.1927 20.9227 17.2744 18.0255 10.6219 19.0985 6.75932 7.51037 7.51037 7.40308 7.40308 7.40308 7.40308 7.40308 4.39889 7.40308 7.40308 7.40308 7.40308 7.40308 5.90098 7.40308 7.40308 7.40308 7.40308 7.40308 7.40308 5.90098 7.40308 7.40308 7.40308 7.40308 7.51037 7.51037 7.40308 7.40308 7.51037 16.416 8.69061 14.8065 12.7679 16.2014 9.33438 9.54897 8.04684 1.28747 9.97815 7.72496 1.07289 1.07289 6.11556 6.11556 1.07289 1.07289 1.07289 3.96972 1.07289 1.07289 1.07289 1.07289 1.07289 6.11556 1.07289 1.07289 6.11556 6.11556 1.07289 1.07289 6.11556 1.07289 1.07289 6.11556 6.11556 1.07289 1.07289 6.11556 6.11556 2.46765 9.76356 6.22285 8.47602 9.97815 9.76356 13.6262 9.22708 7.51037 1.18018 13.3043 1.39476 6.11556 6.11556 0 0 6.11556 6.11556 6.11556 0.107288 6.11556 6.11556 6.11556 6.11556 6.11556 0 6.11556 6.11556 0 0 6.11556 6.11556 0 6.11556 6.11556 0 0 6.11556 6.11556 0 0 9.76356 15.8795 4.1843 15.8795 17.3817 17.8109 13.5189 6.11556 7.29579 13.5189 1.82391 0 1.39476 1.39476 0 0 1.39476 1.39476 1.39476 5.25722 1.39476 1.39476 1.39476 1.39476 1.39476 0 1.39476 1.39476 0 0 1.39476 1.39476 0 1.39476 1.39476 0 0 1.39476 1.39476 0 0 3.0041 3.21869 6.54473 8.04684 6.00827 8.47602 11.0511 17.489 16.7379 1.50204 9.44167 2.46765 0 0 0 0 0 0 0 1.82391 0 0 0 0 0 0 0 0 0 0 0 0 0 0 0 0 0 0 0 0 0 1.39476 6.11556 1.07289 7.51037 9.22708 6.97391 9.87085 9.76356 8.26143 1.07289 8.69061 2.25307 0 0 0 0 0 0 0 0 0 0 0 0 0 0 0 0 0 0 0 0 0 0 0 0 0 0 0 0 0 1.39476 6.11556 1.07289 7.51037 9.22708 6.86661 7.61767 5.90098 7.40308 6.11556 0 0 0 0 0 0 0 0 0 0 0 0 0 0 0 0 0 0 0 0 0 0 0 0 0 0 0 0 0 0 0 0 0 6.11556 7.40308 5.90098 7.61767 7.61767 5.90098 7.40308 6.11556 0 0 0 0 0 0 0 0 0 0 0 0 0 0 0 0 0 0 0 0 0 0 0 0 0 0 0 0 0 0 0 0 0 6.11556 7.40308 5.90098 7.61767 6.86661 9.22708 7.40308 1.07289 6.11556 1.39476 0 0 0 0 0 0 0 0 0 0 0 0 0 0 0 0 0 0 0 0 0 0 0 0 0 0 0 0 0 1.39476 6.11556 1.07289 7.40308 9.22708 6.86661 6.86661 9.11979 7.40308 1.07289 6.11556 1.39476 0 0 0 0 0 0 0 0 0 0 0 0 0 0 0 0 0 0 0 0 0 0 0 0 0 0 0 0 0 1.39476 6.11556 1.07289 7.40308 9.11979 6.86661 6.86661 9.11979 7.40308 1.07289 6.11556 1.39476 0 0 0 0 0 0 0 0 0 0 0 0 0 0 0 0 0 0 0 0 0 0 0 0 0 0 0 0 0 1.39476 6.11556 1.07289 7.40308 9.11979 6.86661 6.97391 7.93955 4.39889 3.96972 0.107288 5.25722 1.82391 0 0 0 0 0 0 0 0 0 0 0 0 0 0 0 0 0 0 0 0 0 0 0 0 0 0 0 1.82391 5.25722 0.107288 3.96972 4.39889 7.93955 6.97391 6.86661 9.11979 7.40308 1.07289 6.11556 1.39476 0 0 0 0 0 0 0 0 0 0 0 0 0 0 0 0 0 0 0 0 0 0 0 0 0 0 0 0 0 1.39476 6.11556 1.07289 7.40308 9.11979 6.86661 6.86661 9.11979 7.40308 1.07289 6.11556 1.39476 0 0 0 0 0 0 0 0 0 0 0 0 0 0 0 0 0 0 0 0 0 0 0 0 0 0 0 0 0 1.39476 6.11556 1.07289 7.40308 9.11979 6.86661 6.86661 9.11979 7.40308 1.07289 6.11556 1.39476 0 0 0 0 0 0 0 0 0 0 0 0 0 0 0 0 0 0 0 0 0 0 0 0 0 0 0 0 0 1.39476 6.11556 1.07289 7.40308 9.11979 6.86661 6.86661 9.11979 7.40308 1.07289 6.11556 1.39476 0 0 0 0 0 0 0 0 0 0 0 0 0 0 0 0 0 0 0 0 0 0 0 0 0 0 0 0 0 1.39476 6.11556 1.07289 7.40308 9.11979 6.86661 6.86661 9.22708 7.40308 1.07289 6.11556 1.39476 0 0 0 0 0 0 0 0 0 0 0 0 0 0 0 0 0 0 0 0 0 0 0 0 0 0 0 0 0 1.39476 6.11556 1.07289 7.40308 9.22708 6.86661 6.97391 4.07701 5.90098 6.11556 0 0 0 0 0 0 0 0 0 0 0 0 0 0 0 0 0 0 0 0 0 0 0 0 0 0 0 0 0 0 0 0 0 6.11556 5.90098 4.07701 6.97391 6.86661 9.22708 7.40308 1.07289 6.11556 1.39476 0 0 0 0 0 0 0 0 0 0 0 0 0 0 0 0 0 0 0 0 0 0 0 0 0 0 0 0 0 1.39476 6.11556 1.07289 7.40308 9.22708 6.86661 6.86661 9.22708 7.40308 1.07289 6.11556 1.39476 0 0 0 0 0 0 0 0 0 0 0 0 0 0 0 0 0 0 0 0 0 0 0 0 0 0 0 0 0 1.39476 6.11556 1.07289 7.40308 9.22708 6.86661 7.61767 6.00827 7.40308 6.11556 0 0 0 0 0 0 0 0 0 0 0 0 0 0 0 0 0 0 0 0 0 0 0 0 0 0 0 0 0 0 0 0 0 6.11556 7.40308 6.00827 7.61767 7.61767 6.00827 7.40308 6.11556 0 0 0 0 0 0 0 0 0 0 0 0 0 0 0 0 0 0 0 0 0 0 0 0 0 0 0 0 0 0 0 0 0 6.11556 7.40308 6.00827 7.61767 6.86661 9.22708 7.40308 1.07289 6.11556 1.39476 0 0 0 0 0 0 0 0 0 0 0 0 0 0 0 0 0 0 0 0 0 0 0 0 0 0 0 0 0 1.39476 6.11556 1.07289 7.40308 9.22708 6.86661 6.86661 9.22708 7.40308 1.07289 6.11556 1.39476 0 0 0 0 0 0 0 0 0 0 0 0 0 0 0 0 0 0 0 0 0 0 0 0 0 0 0 0 0 1.39476 6.11556 1.07289 7.40308 9.22708 6.86661 7.0812 4.07701 5.90098 6.11556 0 0 0 0 0 0 0 0 0 0 0 0 0 0 0 0 0 0 0 0 0 0 0 0 0 0 0 0 0 0 0 0 0 6.11556 5.90098 4.07701 7.0812 6.86661 9.22708 7.40308 1.07289 6.11556 1.39476 0 0 0 0 0 0 0 0 0 0 0 0 0 0 0 0 0 0 0 0 0 0 0 0 0 0 0 0 0 1.39476 6.11556 1.07289 7.40308 9.22708 6.86661 6.86661 9.22708 7.40308 1.07289 6.11556 1.39476 0 0 0 0 0 0 0 0 0 0 0 0 0 0 0 0 0 0 0 0 0 0 0 0 0 0 0 0 0 1.39476 6.11556 1.07289 7.40308 9.22708 6.86661 7.61767 6.00827 7.40308 6.11556 0 0 0 0 0 0 0 0 0 0 0 0 0 0 0 0 0 0 0 0 0 0 0 0 0 0 0 0 0 0 0 0 0 6.11556 7.40308 6.00827 7.61767 7.61767 6.00827 7.40308 6.11556 0 0 0 0 0 0 0 0 0 0 0 0 0 0 0 0 0 0 0 0 0 0 0 0 0 0 0 0 0 0 0 0 0 6.11556 7.40308 6.00827 7.61767 6.86661 9.22708 7.51037 1.07289 6.11556 1.39476 0 0 0 0 0 0 0 0 0 0 0 0 0 0 0 0 0 0 0 0 0 0 0 0 0 0 0 0 0 1.39476 6.11556 1.07289 7.51037 9.22708 6.86661 6.86661 9.22708 7.51037 1.07289 6.11556 1.39476 0 0 0 0 0 0 0 0 0 0 0 0 0 0 0 0 0 0 0 0 0 0 0 0 0 0 0 0 0 1.39476 6.11556 1.07289 7.51037 9.22708 6.86661 7.61767 6.00827 7.40308 6.11556 0 0 0 0 0 0 0 0 0 0 0 0 0 0 0 0 0 0 0 0 0 0 0 0 0 0 0 0 0 0 0 0 0 6.11556 7.29579 6.00827 7.61767 7.61767 6.00827 7.40308 6.11556 0 0 0 0 0 0 0 0 0 1.82391 0 0 0 0 0 0 0 0 0 0 0 0 0 0 0 0 0 0 0 0 0 0 0 6.11556 7.29579 6.00827 7.61767 11.0511 9.22708 7.51037 2.46765 9.76356 3.0041 1.39476 1.39476 0 0 1.39476 1.39476 1.39476 5.25722 1.39476 1.39476 1.39476 1.39476 1.39476 0 1.39476 1.39476 0 0 1.39476 1.39476 0 1.39476 1.39476 0 0 1.39476 1.39476 0 0 3.96972 9.54897 1.39476 8.15414 9.54897 10.4073 16.7379 18.0255 16.416 9.76356 15.8795 3.21869 6.11556 6.11556 0 0 6.11556 6.11556 6.11556 0.107288 6.11556 6.11556 6.11556 6.11556 6.11556 0 6.11556 6.11556 0 0 6.11556 6.11556 0 6.11556 6.11556 0 0 6.11556 6.11556 0 0 9.54897 15.6649 4.93535 15.8795 17.0598 16.7379 6.86661 7.18849 8.69061 6.22285 4.1843 6.54473 1.07289 1.07289 6.11556 6.11556 1.07289 1.07289 1.07289 3.96972 1.07289 1.07289 1.07289 1.07289 1.07289 6.11556 1.07289 1.07289 6.11556 6.11556 1.07289 1.07289 6.11556 1.07289 1.07289 6.11556 6.11556 1.07289 1.07289 6.11556 6.11556 1.39476 4.93535 11.2657 8.9052 7.51037 11.4803 13.4116 14.1627 14.8065 8.47602 15.8795 8.04684 7.51037 7.51037 7.40308 7.40308 7.40308 7.40308 7.40308 4.39889 7.40308 7.40308 7.40308 7.40308 7.40308 5.90098 7.40308 7.40308 7.40308 7.40308 7.40308 7.40308 5.90098 7.40308 7.40308 7.40308 7.40308 7.51037 7.51037 7.29579 7.29579 8.15414 15.8795 8.9052 14.8065 14.4846 12.5533 9.97815 14.6992 12.7679 9.97815 17.3817 6.00827 9.22708 9.22708 5.90098 5.90098 9.22708 9.11979 9.11979 7.93955 9.11979 9.11979 9.11979 9.11979 9.22708 4.07701 9.22708 9.22708 6.00827 6.00827 9.22708 9.22708 4.07701 9.22708 9.22708 6.00827 6.00827 9.22708 9.22708 6.00827 6.00827 9.54897 17.0598 7.51037 14.4846 14.8065 9.87085 16.6306 10.1927 16.2014 9.76356 17.8109 8.47602 6.97391 6.86661 7.61767 7.61767 6.86661 6.86661 6.86661 6.97391 6.86661 6.86661 6.86661 6.86661 6.86661 6.97391 6.86661 6.86661 7.61767 7.61767 6.86661 6.86661 7.0812 6.86661 6.86661 7.61767 7.61767 6.86661 6.86661 7.61767 7.61767 10.4073 16.7379 11.4803 12.5533 9.87085 18.7766 0.1 0.1 0.1 0.1 0.1 0.1 0.1 0.1 0.1 0.1 0.1 0.1 0.1 0.1 0.1 0.1 0.1 0.1 0.1 0.1 0.1 0.1 0.1 0.1 0.1 0.1 0.1 0.1 0.1 0.1 0.1 0.1 0.1 0.1 0.1 0.1 0.1 0.1 0.1 0.1 0.1 0.1 0.1 0.1 0.1 0.1 0.1 0.1 0.1 0.1 0.1 0.1 0.1 0.1 0.1 0.1 0.1 0.1 0.1 0.1 0.1 0.1 0.1 0.1 0.1 0.1 0.1 0.1 0.1 0.1 0.1 0.1 0.1 0.1 0.1 0.1 0.1 0.1 0.1 0.1 0.1 0.1 0.1 0.1 0.1 0.1 0.1 0.1 0.1 0.1 0.1 0.1 0.1 0.1 0.1 0.1 0.1 0.1 0.1 0.1 0.1 0.1 0.1 0.1 0.1 0.1 0.1 0.1 0.1 0.1 0.1 0.1 0.1 0.1 0.1 0.1 0.1 0.1 0.1 0.1 0.1 0.1 0.1 0.1 0.1 0.1 0.1 0.1 0.1 0.1 0.1 0.1 0.1 0.1 0.1 0.1 0.1 0.1 0.1 0.1 0.1 0.1 0.1 0.1 0.1 0.1 0.1 0.1 0.1 0.1 0.1 0.1 0.1 0.1 0.1 0.1 0.1 0.1 0.1 0.1 0.1 0.1 0.1 0.1 0.1 0.1 0.1 0.1 0.1 0.1 0.1 0.1 0.1 0.1 0.1 0.1 0.1 0.1 0.1 0.1 0.1 0.1 0.1 0.1 0.1 0.1 0.1 0.1 0.1 0.1 0.1 0.1 0.1 0.1 0.1 0.1 0.1 0.1 0.1 0.1 0.1 0.1 0.1 0.1 0.1 0.1 0.1 0.1 0.1 0.1 0.1 0.1 0.1 0.1 0.1 0.1 0.1 0.1 0.1 0.1 0.1 0.1 0.1 0.1 0.1 0.1 0.1 0.1 0.1 0.1 0.1 0.1 0.1 0.1 0.1 0.1 0.1 0.1 0.1 0.1 0.1 0.1 0.1 0.1 0.1 0.1 0.1 0.1 0.1 0.1 0.1 0.1 0.1 0.1 0.1 0.1 0.1 0.1 0.1 0.1 0.1 0.1 0.1 0.1 0.1 0.1 0.1 0.1 0.1 0.1 0.1 0.1 0.1 0.1 0.1 0.1 0.1 0.1 0.1 0.1 0.1 0.1 0.1 0.1 0.1 0.1 0.1 0.1 0.1 0.1 0.1 0.1 0.1 0.1 0.1 0.1 0.1 0.1 0.1 0.1 0.1 0.1 0.1 0.1 0.1 0.1 0.1 0.1 0.1 0.1 0.1 0.1 0.1 0.1 0.1 0.1 0.1 0.1 0.1 0.1 0.1 0.1 0.1 0.1 0.1 0.1 0.1 0.1 
</DataArray>

<DataArray type="Float32" Name="Density" format="ascii">
1000.02 1000.02 1000.02 1000.02 1000.01 1000.01 1000.01 1000.01 1000.01 1000.01 1000.01 1000.01 1000.01 1000.01 1000.01 1000.01 1000.01 1000.01 1000.01 1000.01 1000.01 1000.01 1000.01 1000.01 1000.01 1000.01 1000.01 1000.01 1000.01 1000.01 1000.01 1000.01 1000.01 1000.01 1000.01 1000.01 1000.02 1000.01 1000.01 1000.01 1000.02 1000.02 1000.02 1000.02 1000.01 1000.02 1000 1000.01 1000.01 1000.01 1000.01 1000.01 1000.01 1000.01 1000.01 1000.01 1000.01 1000.01 1000.01 1000.01 1000 1000.01 1000.01 1000.01 1000.01 1000.01 1000.01 1000 1000.01 1000.01 1000.01 1000.01 1000.01 1000.01 1000.01 1000.01 1000.01 1000.02 1000.01 1000.02 1000.02 1000.01 1000.02 1000.02 1000.02 1000.01 1000.02 1000.01 1000.01 1000.01 1000.01 1000.01 1000.01 1000.01 1000.01 1000 1000.01 1000.01 1000.01 1000.01 1000.01 1000.01 1000.01 1000.01 1000.01 1000.01 1000.01 1000.01 1000.01 1000.01 1000.01 1000.01 1000.01 1000.01 1000.01 1000.01 1000.01 1000.01 1000.02 1000.01 1000.02 1000.01 1000.02 1000.01 1000.01 1000.01 1000 1000.01 1000.01 1000 1000 1000.01 1000.01 1000 1000 1000 1000 1000 1000 1000 1000 1000 1000.01 1000 1000 1000.01 1000.01 1000 1000 1000.01 1000 1000 1000.01 1000.01 1000 1000 1000.01 1000.01 1000 1000.01 1000.01 1000.01 1000.01 1000.01 1000.02 1000.01 1000.01 1000 1000.01 1000 1000.01 1000.01 1000 1000 1000.01 1000.01 1000.01 1000 1000.01 1000.01 1000.01 1000.01 1000.01 1000 1000.01 1000.01 1000 1000 1000.01 1000.01 1000 1000.01 1000.01 1000 1000 1000.01 1000.01 1000 1000 1000.01 1000.02 1000 1000.02 1000.02 1000.02 1000.02 1000.01 1000.01 1000.02 1000 1000 1000 1000 1000 1000 1000 1000 1000 1000.01 1000 1000 1000 1000 1000 1000 1000 1000 1000 1000 1000 1000 1000 1000 1000 1000 1000 1000 1000 1000 1000 1000 1000 1000.01 1000.01 1000.01 1000.01 1000.01 1000.02 1000.02 1000 1000.01 1000 1000 1000 1000 1000 1000 1000 1000 1000 1000 1000 1000 1000 1000 1000 1000 1000 1000 1000 1000 1000 1000 1000 1000 1000 1000 1000 1000 1000 1000 1000 1000.01 1000 1000.01 1000.01 1000.01 1000.01 1000.01 1000.01 1000 1000.01 1000 1000 1000 1000 1000 1000 1000 1000 1000 1000 1000 1000 1000 1000 1000 1000 1000 1000 1000 1000 1000 1000 1000 1000 1000 1000 1000 1000 1000 1000 1000 1000.01 1000 1000.01 1000.01 1000.01 1000.01 1000.01 1000.01 1000.01 1000 1000 1000 1000 1000 1000 1000 1000 1000 1000 1000 1000 1000 1000 1000 1000 1000 1000 1000 1000 1000 1000 1000 1000 1000 1000 1000 1000 1000 1000 1000 1000 1000 1000.01 1000.01 1000.01 1000.01 1000.01 1000.01 1000.01 1000.01 1000 1000 1000 1000 1000 1000 1000 1000 1000 1000 1000 1000 1000 1000 1000 1000 1000 1000 1000 1000 1000 1000 1000 1000 1000 1000 1000 1000 1000 1000 1000 1000 1000 1000.01 1000.01 1000.01 1000.01 1000.01 1000.01 1000.01 1000 1000.01 1000 1000 1000 1000 1000 1000 1000 1000 1000 1000 1000 1000 1000 1000 1000 1000 1000 1000 1000 1000 1000 1000 1000 1000 1000 1000 1000 1000 1000 1000 1000 1000.01 1000 1000.01 1000.01 1000.01 1000.01 1000.01 1000.01 1000 1000.01 1000 1000 1000 1000 1000 1000 1000 1000 1000 1000 1000 1000 1000 1000 1000 1000 1000 1000 1000 1000 1000 1000 1000 1000 1000 1000 1000 1000 1000 1000 1000 1000.01 1000 1000.01 1000.01 1000.01 1000.01 1000.01 1000.01 1000 1000.01 1000 1000 1000 1000 1000 1000 1000 1000 1000 1000 1000 1000 1000 1000 1000 1000 1000 1000 1000 1000 1000 1000 1000 1000 1000 1000 1000 1000 1000 1000 1000 1000.01 1000 1000.01 1000.01 1000.01 1000.01 1000.01 1000 1000 1000 1000.01 1000 1000 1000 1000 1000 1000 1000 1000 1000 1000 1000 1000 1000 1000 1000 1000 1000 1000 1000 1000 1000 1000 1000 1000 1000 1000 1000 1000 1000 1000.01 1000 1000 1000 1000.01 1000.01 1000.01 1000.01 1000.01 1000 1000.01 1000 1000 1000 1000 1000 1000 1000 1000 1000 1000 1000 1000 1000 1000 1000 1000 1000 1000 1000 1000 1000 1000 1000 1000 1000 1000 1000 1000 1000 1000 1000 1000.01 1000 1000.01 1000.01 1000.01 1000.01 1000.01 1000.01 1000 1000.01 1000 1000 1000 1000 1000 1000 1000 1000 1000 1000 1000 1000 1000 1000 1000 1000 1000 1000 1000 1000 1000 1000 1000 1000 1000 1000 1000 1000 1000 1000 1000 1000.01 1000 1000.01 1000.01 1000.01 1000.01 1000.01 1000.01 1000 1000.01 1000 1000 1000 1000 1000 1000 1000 1000 1000 1000 1000 1000 1000 1000 1000 1000 1000 1000 1000 1000 1000 1000 1000 1000 1000 1000 1000 1000 1000 1000 1000 1000.01 1000 1000.01 1000.01 1000.01 1000.01 1000.01 1000.01 1000 1000.01 1000 1000 1000 1000 1000 1000 1000 1000 1000 1000 1000 1000 1000 1000 1000 1000 1000 1000 1000 1000 1000 1000 1000 1000 1000 1000 1000 1000 1000 1000 1000 1000.01 1000 1000.01 1000.01 1000.01 1000.01 1000.01 1000.01 1000 1000.01 1000 1000 1000 1000 1000 1000 1000 1000 1000 1000 1000 1000 1000 1000 1000 1000 1000 1000 1000 1000 1000 1000 1000 1000 1000 1000 1000 1000 1000 1000 1000 1000.01 1000 1000.01 1000.01 1000.01 1000.01 1000 1000.01 1000.01 1000 1000 1000 1000 1000 1000 1000 1000 1000 1000 1000 1000 1000 1000 1000 1000 1000 1000 1000 1000 1000 1000 1000 1000 1000 1000 1000 1000 1000 1000 1000 1000 1000 1000.01 1000.01 1000 1000.01 1000.01 1000.01 1000.01 1000 1000.01 1000 1000 1000 1000 1000 1000 1000 1000 1000 1000 1000 1000 1000 1000 1000 1000 1000 1000 1000 1000 1000 1000 1000 1000 1000 1000 1000 1000 1000 1000 1000 1000.01 1000 1000.01 1000.01 1000.01 1000.01 1000.01 1000.01 1000 1000.01 1000 1000 1000 1000 1000 1000 1000 1000 1000 1000 1000 1000 1000 1000 1000 1000 1000 1000 1000 1000 1000 1000 1000 1000 1000 1000 1000 1000 1000 1000 1000 1000.01 1000 1000.01 1000.01 1000.01 1000.01 1000.01 1000.01 1000.01 1000 1000 1000 1000 1000 1000 1000 1000 1000 1000 1000 1000 1000 1000 1000 1000 1000 1000 1000 1000 1000 1000 1000 1000 1000 1000 1000 1000 1000 1000 1000 1000 1000 1000.01 1000.01 1000.01 1000.01 1000.01 1000.01 1000.01 1000.01 1000 1000 1000 1000 1000 1000 1000 1000 1000 1000 1000 1000 1000 1000 1000 1000 1000 1000 1000 1000 1000 1000 1000 1000 1000 1000 1000 1000 1000 1000 1000 1000 1000 1000.01 1000.01 1000.01 1000.01 1000.01 1000.01 1000.01 1000 1000.01 1000 1000 1000 1000 1000 1000 1000 1000 1000 1000 1000 1000 1000 1000 1000 1000 1000 1000 1000 1000 1000 1000 1000 1000 1000 1000 1000 1000 1000 1000 1000 1000.01 1000 1000.01 1000.01 1000.01 1000.01 1000.01 1000.01 1000 1000.01 1000 1000 1000 1000 1000 1000 1000 1000 1000 1000 1000 1000 1000 1000 1000 1000 1000 1000 1000 1000 1000 1000 1000 1000 1000 1000 1000 1000 1000 1000 1000 1000.01 1000 1000.01 1000.01 1000.01 1000.01 1000 1000.01 1000.01 1000 1000 1000 1000 1000 1000 1000 1000 1000 1000 1000 1000 1000 1000 1000 1000 1000 1000 1000 1000 1000 1000 1000 1000 1000 1000 1000 1000 1000 1000 1000 1000 1000 1000.01 1000.01 1000 1000.01 1000.01 1000.01 1000.01 1000 1000.01 1000 1000 1000 1000 1000 1000 1000 1000 1000 1000 1000 1000 1000 1000 1000 1000 1000 1000 1000 1000 1000 1000 1000 1000 1000 1000 1000 1000 1000 1000 1000 1000.01 1000 1000.01 1000.01 1000.01 1000.01 1000.01 1000.01 1000 1000.01 1000 1000 1000 1000 1000 1000 1000 1000 1000 1000 1000 1000 1000 1000 1000 1000 1000 1000 1000 1000 1000 1000 1000 1000 1000 1000 1000 1000 1000 1000 1000 1000.01 1000 1000.01 1000.01 1000.01 1000.01 1000.01 1000.01 1000.01 1000 1000 1000 1000 1000 1000 1000 1000 1000 1000 1000 1000 1000 1000 1000 1000 1000 1000 1000 1000 1000 1000 1000 1000 1000 1000 1000 1000 1000 1000 1000 1000 1000 1000.01 1000.01 1000.01 1000.01 1000.01 1000.01 1000.01 1000.01 1000 1000 1000 1000 1000 1000 1000 1000 1000 1000 1000 1000 1000 1000 1000 1000 1000 1000 1000 1000 1000 1000 1000 1000 1000 1000 1000 1000 1000 1000 1000 1000 1000 1000.01 1000.01 1000.01 1000.01 1000.01 1000.01 1000.01 1000 1000.01 1000 1000 1000 1000 1000 1000 1000 1000 1000 1000 1000 1000 1000 1000 1000 1000 1000 1000 1000 1000 1000 1000 1000 1000 1000 1000 1000 1000 1000 1000 1000 1000.01 1000 1000.01 1000.01 1000.01 1000.01 1000.01 1000.01 1000 1000.01 1000 1000 1000 1000 1000 1000 1000 1000 1000 1000 1000 1000 1000 1000 1000 1000 1000 1000 1000 1000 1000 1000 1000 1000 1000 1000 1000 1000 1000 1000 1000 1000.01 1000 1000.01 1000.01 1000.01 1000.01 1000.01 1000.01 1000.01 1000 1000 1000 1000 1000 1000 1000 1000 1000 1000 1000 1000 1000 1000 1000 1000 1000 1000 1000 1000 1000 1000 1000 1000 1000 1000 1000 1000 1000 1000 1000 1000 1000 1000.01 1000.01 1000.01 1000.01 1000.01 1000.01 1000.01 1000.01 1000 1000 1000 1000 1000 1000 1000 1000 1000 1000 1000 1000 1000 1000 1000 1000 1000 1000 1000 1000 1000 1000 1000 1000 1000 1000 1000 1000 1000 1000 1000 1000 1000 1000.01 1000.01 1000.01 1000.01 1000.01 1000.01 1000.01 1000 1000.01 1000 1000 1000 1000 1000 1000 1000 1000 1000.01 1000 1000 1000 1000 1000 1000 1000 1000 1000 1000 1000 1000 1000 1000 1000 1000 1000 1000 1000 1000 1000 1000 1000.01 1000 1000.01 1000.01 1000.01 1000.02 1000.02 1000.02 1000.01 1000.02 1000 1000.01 1000.01 1000 1000 1000.01 1000.01 1000.01 1000 1000.01 1000.01 1000.01 1000.01 1000.01 1000 1000.01 1000.01 1000 1000 1000.01 1000.01 1000 1000.01 1000.01 1000 1000 1000.01 1000.01 1000 1000 1000.01 1000.02 1000.01 1000.02 1000.02 1000.02 1000.01 1000.01 1000.01 1000.01 1000 1000.01 1000 1000 1000.01 1000.01 1000 1000 1000 1000 1000 1000 1000 1000 1000 1000.01 1000 1000 1000.01 1000.01 1000 1000 1000.01 1000 1000 1000.01 1000.01 1000 1000 1000.01 1000.01 1000 1000.01 1000.01 1000.01 1000.01 1000.01 1000.01 1000.02 1000.02 1000.01 1000.02 1000.01 1000.01 1000.01 1000.01 1000.01 1000.01 1000.01 1000.01 1000 1000.01 1000.01 1000.01 1000.01 1000.01 1000.01 1000.01 1000.01 1000.01 1000.01 1000.01 1000.01 1000.01 1000.01 1000.01 1000.01 1000.01 1000.01 1000.01 1000.01 1000.01 1000.01 1000.02 1000.01 1000.02 1000.02 1000.01 1000.01 1000.02 1000.01 1000.01 1000.02 1000.01 1000.01 1000.01 1000.01 1000.01 1000.01 1000.01 1000.01 1000.01 1000.01 1000.01 1000.01 1000.01 1000.01 1000 1000.01 1000.01 1000.01 1000.01 1000.01 1000.01 1000 1000.01 1000.01 1000.01 1000.01 1000.01 1000.01 1000.01 1000.01 1000.01 1000.02 1000.01 1000.02 1000.02 1000.01 1000.02 1000.01 1000.02 1000.01 1000.02 1000.01 1000.01 1000.01 1000.01 1000.01 1000.01 1000.01 1000.01 1000.01 1000.01 1000.01 1000.01 1000.01 1000.01 1000.01 1000.01 1000.01 1000.01 1000.01 1000.01 1000.01 1000.01 1000.01 1000.01 1000.01 1000.01 1000.01 1000.01 1000.01 1000.01 1000.01 1000.02 1000.01 1000.01 1000.01 1000.02 1000 1000 1000 1000 1000 1000 1000 1000 1000 1000 1000 1000 1000 1000 1000 1000 1000 1000 1000 1000 1000 1000 1000 1000 1000 1000 1000 1000 1000 1000 1000 1000 1000 1000 1000 1000 1000 1000 1000 1000 1000 1000 1000 1000 1000 1000 1000 1000 1000 1000 1000 1000 1000 1000 1000 1000 1000 1000 1000 1000 1000 1000 1000 1000 1000 1000 1000 1000 1000 1000 1000 1000 1000 1000 1000 1000 1000 1000 1000 1000 1000 1000 1000 1000 1000 1000 1000 1000 1000 1000 1000 1000 1000 1000 1000 1000 1000 1000 1000 1000 1000 1000 1000 1000 1000 1000 1000 1000 1000 1000 1000 1000 1000 1000 1000 1000 1000 1000 1000 1000 1000 1000 1000 1000 1000 1000 1000 1000 1000 1000 1000 1000 1000 1000 1000 1000 1000 1000 1000 1000 1000 1000 1000 1000 1000 1000 1000 1000 1000 1000 1000 1000 1000 1000 1000 1000 1000 1000 1000 1000 1000 1000 1000 1000 1000 1000 1000 1000 1000 1000 1000 1000 1000 1000 1000 1000 1000 1000 1000 1000 1000 1000 1000 1000 1000 1000 1000 1000 1000 1000 1000 1000 1000 1000 1000 1000 1000 1000 1000 1000 1000 1000 1000 1000 1000 1000 1000 1000 1000 1000 1000 1000 1000 1000 1000 1000 1000 1000 1000 1000 1000 1000 1000 1000 1000 1000 1000 1000 1000 1000 1000 1000 1000 1000 1000 1000 1000 1000 1000 1000 1000 1000 1000 1000 1000 1000 1000 1000 1000 1000 1000 1000 1000 1000 1000 1000 1000 1000 1000 1000 1000 1000 1000 1000 1000 1000 1000 1000 1000 1000 1000 1000 1000 1000 1000 1000 1000 1000 1000 1000 1000 1000 1000 1000 1000 1000 1000 1000 1000 1000 1000 1000 1000 1000 1000 1000 1000 1000 1000 1000 1000 1000 1000 1000 1000 1000 1000 1000 1000 1000 1000 1000 1000 1000 1000 1000 1000 1000 1000 1000 1000 1000 1000 1000 1000 1000 1000 1000 
</DataArray>
<DataArray type="Float32" Name="Velocity" NumberOfComponents="3" format="ascii">
0.0043088365 0.0060046944 0
0.00020601651 0.0058210669 0
-0.00012744742 0.0054244022 0
0.00013646098 0.00472289 0
7.7678873e-05 0.0040113204 0
2.2596045e-05 0.0029042272 0
5.9937349e-07 0.0040731798 0
6.9847027e-07 0.0040731719 0
4.5573756e-07 0.0029217047 0
3.3882231e-06 0.002920344 0
-7.9569833e-07 0.0040731677 0
1.4877939e-07 0.0040731803 0
4.8401233e-08 0.0040731751 0
2.7219105e-10 0.004975325 0
-5.7793535e-08 0.0040731779 0
-1.2488708e-06 0.0040731812 0
-8.2255795e-08 0.0040731812 0
3.6147409e-07 0.0040731858 0
1.0761989e-06 0.0040731621 0
6.3398653e-07 0.0029060997 0
2.3748036e-07 0.0040731793 0
2.811029e-07 0.0040731835 0
-7.598145e-07 0.0029129572 0
6.0293564e-07 0.0029129572 0
-3.6629737e-07 0.0040731798 0
-1.4126705e-07 0.0040731803 0
-1.3336333e-11 0.0029061821 0
1.4126707e-07 0.0040731803 0
3.6629737e-07 0.0040731798 0
-5.9160908e-07 0.0029129572 0
1.631571e-07 0.0029129586 0
-4.9205727e-07 0.0040731798 0
4.944676e-07 0.0040731798 0
-4.0450141e-06 0.0029130829 0
-4.3337289e-07 0.0029129528 0
-0.00010774375 0.0040644752 0
-0.00013785763 0.0039482675 0
-0.0001144296 0.0029676082 0
-0.00095960865 0.0041183149 0
-0.00020092662 0.0038921766 0
-0.0045866105 0.0044233645 0
0.0041358671 0.0011674099 0
0.00077793229 0.0011841838 0
0.00020796272 0.00071321888 0
0.0001257117 0.00074812752 0
0.00030901114 0.00095289177 0
-5.4113639e-07 0.00079025008 0
8.1012649e-06 0.0011053126 0
1.1389767e-05 0.0011054407 0
-9.8499856e-07 0.00095304212 0
1.6676968e-07 0.00095282623 0
3.9794472e-06 0.0011056213 0
5.7250445e-06 0.0011058389 0
2.6261107e-06 0.001105905 0
-6.5880818e-07 0.0014185345 0
4.5667957e-06 0.0011057631 0
3.3679048e-06 0.0011058818 0
3.0234335e-06 0.0011059041 0
1.6114041e-06 0.0011058872 0
-1.9787315e-06 0.0011057563 0
-6.3615531e-09 0.00079120911 0
-1.3098006e-06 0.0011057432 0
-6.7842637e-07 0.0011057131 0
-1.0263697e-06 0.00095263106 0
9.8981059e-07 0.00095263147 0
2.4080591e-06 0.0011057216 0
8.5708729e-07 0.0011057069 0
-4.5768514e-11 0.00079108088 0
-2.5088405e-06 0.0011057222 0
-3.7651257e-06 0.0011057066 0
-9.4187692e-07 0.00095263019 0
1.164787e-06 0.0009526239 0
-8.0175914e-06 0.0011054709 0
-5.512823e-06 0.0011054612 0
-7.8223775e-07 0.0009524764 0
1.3890489e-06 0.00095260958 0
-4.9640748e-05 0.0011047518 0
-0.00020659018 0.0010673042 0
-0.00018916656 0.00067790074 0
-0.00041083572 0.0005168863 0
-0.00067900791 0.00068469375 0
-0.0038204845 0.00013288436 0
0.0036161828 0.00057921745 0
0.00051400438 0.0004296707 0
0.00061058492 0.00022646722 0
0.00028400036 0.00014609437 0
0.00023162708 9.2252827e-05 0
3.8402068e-05 0.00014554558 0
1.0217021e-06 0.00017985093 0
7.8097883e-06 0.00017917287 0
1.8222236e-06 0.00016505593 0
2.3667144e-07 0.00016544411 0
-3.5102516e-06 0.00017878367 0
-1.6847207e-06 0.00017823698 0
-1.5887673e-07 0.00017793698 0
-1.3287307e-06 0.00012193534 0
-1.9267709e-06 0.00017814295 0
6.4396693e-07 0.00017819104 0
1.7816669e-06 0.00017817023 0
-5.4634404e-07 0.0001781795 0
2.1279047e-06 0.0001783022 0
-4.6557264e-07 0.00014902538 0
-1.1348197e-06 0.00017836076 0
2.1075157e-06 0.00017837477 0
2.254083e-06 0.00016570918 0
-2.978371e-06 0.00016572322 0
-1.7463107e-06 0.00017835097 0
-4.0275529e-07 0.00017840319 0
3.3290092e-07 0.00014890051 0
-9.9108604e-07 0.00017839111 0
-4.7896066e-07 0.00017848749 0
-4.7495337e-06 0.00016559043 0
-8.6449069e-07 0.00016532389 0
-1.722155e-06 0.00017895273 0
2.6981716e-06 0.00017913582 0
-4.1520636e-07 0.00016516043 0
-1.6621403e-05 0.00016467065 0
-3.1792781e-05 0.00018005389 0
-0.00016063756 0.00017477105 0
-0.00028722998 0.00016741166 0
-0.00037308465 0.0003886568 0
-0.00046481975 0.00048781402 0
-0.0039791279 0.00084054709 0
0.0041428744 0.0003156304 0
0.00090329401 0.00027798687 0
0.00043218795 0.00023281918 0
9.2067261e-05 0.00010827975 0
0.00011644152 0.00011971013 0
2.3585491e-05 8.3419734e-05 0
5.754418e-06 0.00010039015 0
9.9084855e-07 0.00010030485 0
-2.9247616e-07 9.0034555e-05 0
6.1835631e-06 9.0009744e-05 0
-4.8802372e-07 0.00010013481 0
-9.2766953e-08 0.00010007116 0
-3.3276962e-07 0.00010004833 0
-3.8041699e-07 0.00012791569 0
-3.308709e-07 0.00010004424 0
-4.3199299e-07 0.00010007119 0
2.9504301e-07 0.00010007121 0
1.1923213e-06 0.00010007031 0
5.1104615e-07 0.00010012036 0
6.573203e-07 8.5321597e-05 0
4.6407351e-07 0.00010012681 0
-7.2689494e-07 0.00010015585 0
-2.2240408e-06 8.9494955e-05 0
2.221368e-06 8.9495137e-05 0
7.2145474e-07 0.00010015569 0
1.7793019e-08 0.00010012371 0
-7.53123e-12 8.5443353e-05 0
-1.7653994e-08 0.00010012371 0
-7.2013898e-07 0.00010015587 0
-2.2172051e-06 8.9494897e-05 0
3.3821639e-06 8.9525078e-05 0
1.5680432e-07 0.00010014126 0
-1.2369212e-07 0.00010014336 0
-7.6612014e-06 8.960846e-05 0
-7.7772829e-06 8.9266898e-05 0
-2.8527949e-05 9.8145458e-05 0
-0.00016117029 5.3123567e-05 0
-0.00017028673 0.0001878912 0
-0.00017986821 0.00028657389 0
-0.00099762261 0.00012437742 0
-0.0040802513 0.00024803448 0
0.0041520465 0.00047472137 0
0.00098855468 7.8444733e-05 0
0.00027862002 0.00010874955 0
0.00013456684 7.7896431e-05 0
0.00011997745 9.5153526e-05 0
2.5224528e-05 2.6719401e-06 0
3.7524433e-06 9.5108233e-05 0
2.7501987e-06 9.505848e-05 0
1.6649201e-06 4.4506355e-06 0
-1.1921989e-06 4.3978152e-06 0
1.2737363e-08 9.5060219e-05 0
-1.62864e-07 9.5048345e-05 0
-1.2758575e-06 9.5015232e-05 0
-1.9411895e-07 7.2191098e-05 0
4.7991125e-07 9.5012045e-05 0
5.6256027e-07 9.5048366e-05 0
1.3359578e-07 9.5047537e-05 0
-2.8568705e-08 9.5047719e-05 0
2.3762462e-07 9.5073243e-05 0
5.382239e-07 4.3738028e-06 0
1.0398112e-07 9.5052805e-05 0
8.9112399e-07 9.5051088e-05 0
7.3836219e-07 4.3935611e-06 0
-7.3836577e-07 4.3935624e-06 0
-2.3668947e-07 9.5051e-05 0
3.6434928e-09 9.5050236e-05 0
1.4352963e-15 4.3790264e-06 0
-3.6434928e-09 9.5050236e-05 0
2.3668947e-07 9.5051e-05 0
7.3836577e-07 4.393562e-06 0
-7.3838032e-07 4.3935665e-06 0
-3.8365044e-07 9.5052994e-05 0
3.8365044e-07 9.5053001e-05 0
7.2453122e-07 4.3937735e-06 0
-1.1758204e-05 4.2825422e-06 0
-7.8571677e-05 8.4180807e-05 0
-0.00011154965 0.00019911972 0
-8.690948e-05 7.8264718e-05 0
-0.00018751986 0.00013390991 0
-0.0010599121 0.00022375448 0
-0.0038913428 0.00027024036 0
0.0030455128 0.00018591469 0
0.00079070783 0.00015815096 0
0.00032469846 7.9336991e-05 0
9.8739431e-05 0.00015912192 0
4.2933734e-05 3.3340617e-05 0
2.3567493e-06 -3.0360815e-07 0
6.0475983e-08 1.5281261e-05 0
6.1225862e-08 1.5281077e-05 0
7.6816228e-08 6.1967484e-09 0
-9.7318306e-08 6.0853771e-09 0
-1.0774723e-07 1.5281084e-05 0
-1.9046905e-07 1.5281026e-05 0
2.5192534e-07 1.5280875e-05 0
1.6276305e-11 8.6339358e-05 0
-2.5249832e-07 1.5280888e-05 0
1.9049961e-07 1.528103e-05 0
-4.6516877e-08 1.5281026e-05 0
1.0703865e-07 1.5281046e-05 0
1.425019e-07 1.5280992e-05 0
-3.0759498e-08 6.0922924e-09 0
-3.125011e-07 1.5281068e-05 0
3.0945853e-07 1.5281075e-05 0
3.0758564e-08 6.1305907e-09 0
-3.0758557e-08 6.130592e-09 0
-3.0935462e-07 1.5281052e-05 0
3.1111918e-07 1.5281057e-05 0
8.0859761e-16 6.0780248e-09 0
-3.1111918e-07 1.5281057e-05 0
3.0935462e-07 1.5281052e-05 0
3.0758557e-08 6.130592e-09 0
-3.0758581e-08 6.1305889e-09 0
-3.097019e-07 1.5281057e-05 0
3.097019e-07 1.5281057e-05 0
3.0736796e-08 6.1308656e-09 0
-3.7433765e-07 5.7681731e-09 0
-8.8356283e-06 2.6608952e-05 0
2.6024327e-06 5.8078243e-05 0
-9.0624082e-05 1.1832662e-05 0
-0.0001620502 3.8719314e-05 0
-0.00094860914 1.3295622e-05 0
-0.0029235871 2.7009097e-05 0
0.0040263096 3.2773416e-05 0
0.001182307 8.593141e-05 0
0.00027315598 0.00012937281 0
8.4255473e-05 2.6810223e-05 0
0.00015997977 2.1131313e-05 0
3.4076082e-05 -2.760165e-06 0
5.3816655e-07 2.1139405e-07 0
4.9803841e-09 2.1137529e-07 0
0 -4.7746509e-09 0
0 -4.7746509e-09 0
-4.7744964e-09 2.1137529e-07 0
4.7213713e-09 2.1137528e-07 0
-1.4558823e-07 2.1130872e-07 0
0 1.8243476e-05 0
1.4558823e-07 2.1130872e-07 0
-4.7213713e-09 2.1137528e-07 0
4.7744964e-09 2.1137528e-07 0
-4.7744964e-09 2.1137529e-07 0
4.7746509e-09 2.1137525e-07 0
0 -4.7746509e-09 0
-4.7745821e-09 2.1137531e-07 0
4.7745821e-09 2.1137529e-07 0
0 -4.7746509e-09 0
0 -4.7746509e-09 0
-4.7745821e-09 2.1137528e-07 0
4.7745821e-09 2.1137528e-07 0
0 -4.7746509e-09 0
-4.7745821e-09 2.1137528e-07 0
4.7745821e-09 2.1137528e-07 0
0 -4.7746509e-09 0
0 -4.7746509e-09 0
-4.7745821e-09 2.1137528e-07 0
4.7745821e-09 2.1137528e-07 0
0 -4.7746509e-09 0
-2.1612902e-07 -4.7748978e-09 0
-1.5303258e-05 2.5370716e-07 0
-9.5078889e-05 3.6115957e-06 0
-0.00010039876 5.745017e-06 0
-0.00017994411 5.3945682e-06 0
-0.0011052286 8.3028599e-06 0
-0.0040731928 9.7765997e-07 0