<?xml version="1.0" ?>

<VTKFile type="UnstructuredGrid" version="0.1" byte_order="BigEndian">

<UnstructuredGrid>

<Piece NumberOfPoints= " 2009 " NumberOfCells=" 2009 ">

<PointData Scalars="Pressure" Vectors="Velocity">

<DataArray type="Float32" Name="Pressure" format="ascii">

14.3773 14.4846 15.0211 12.7679 8.9052 12.9825 6.43744 6.43744 8.26143 8.26143 6.43744 6.43744 6.43744 6.97391 6.43744 6.43744 6.43744 6.43744 6.43744 8.15414 6.43744 6.43744 8.26143 8.26143 6.43744 6.43744 8.15414 6.43744 6.43744 8.26143 8.26143 6.43744 6.43744 8.26143 8.26143 13.8408 10.3 8.36873 14.6992 10.5146 14.1627 20.2789 19.4205 17.489 10.3 19.2058 5.79368 9.22708 9.22708 6.43744 6.43744 9.22708 9.11979 9.11979 7.93955 9.11979 9.11979 9.11979 9.11979 9.22708 4.07701 9.22708 9.22708 6.54473 6.54473 9.22708 9.22708 4.07701 9.22708 9.22708 6.54473 6.54473 9.22708 9.22708 6.54473 6.54473 11.4803 15.6649 7.51037 14.1627 14.6992 8.9052 19.6351 17.2744 18.0255 9.76356 15.8795 8.36873 6.33015 6.33015 6.22285 6.22285 6.33015 6.33015 6.33015 3.32598 6.33015 6.33015 6.33015 6.33015 6.33015 4.82805 6.33015 6.33015 6.22285 6.22285 6.33015 6.33015 4.82805 6.33015 6.33015 6.22285 6.22285 6.33015 6.33015 6.33015 6.22285 9.33438 13.6262 7.0812 15.6649 12.7679 17.489 12.2314 10.6219 9.11979 1.71662 7.93955 13.5189 1.50204 1.07289 8.36873 8.26143 1.18018 1.07289 1.07289 5.04264 1.07289 1.07289 1.07289 1.07289 1.07289 8.26143 1.07289 1.07289 8.26143 8.26143 1.07289 1.07289 8.26143 1.07289 1.07289 8.26143 8.26143 1.07289 1.18018 8.26143 8.26143 6.22285 7.72496 8.47602 8.36873 10.7292 9.01249 9.76356 9.76356 8.04684 0.75102 7.18849 4.2916 3.32598 3.32598 0.107288 0.107288 3.32598 3.32598 3.32598 0.107288 3.32598 3.32598 3.32598 3.32598 3.32598 0.107288 3.32598 3.32598 0.107288 0.107288 3.32598 3.32598 0.107288 3.32598 3.32598 0.107288 0.107288 3.32598 3.32598 0.107288 0.107288 8.04684 7.72496 4.1843 12.6606 14.4846 12.2314 13.6262 5.79368 6.22285 12.9825 3.54056 0.536443 3.64785 3.64785 0 0 3.64785 3.64785 3.64785 1.9312 3.64785 3.64785 3.64785 3.64785 3.64785 0 3.64785 3.64785 0 0 3.64785 3.64785 0 3.64785 3.64785 0 0 3.64785 3.64785 0 0 9.44167 4.50618 10.9438 10.1927 9.65626 10.3 7.29579 12.5533 11.6949 4.50618 3.86243 3.86243 0 0 0 0 0 0 0 5.14993 0 0 0 0 0 0 0 0 0 0 0 0 0 0 0 0 0 0 0 0 0 3.64785 3.32598 1.50204 6.33015 9.22708 6.54473 12.9825 13.197 12.3387 1.82391 5.68639 8.58331 0 0 0 0 0 0 0 0 0 0 0 0 0 0 0 0 0 0 0 0 0 0 0 0 0 0 0 0 0 3.64785 3.32598 1.07289 6.33015 9.22708 6.43744 8.26143 6.43744 6.22285 8.36873 0.107288 0 0 0 0 0 0 0 0 0 0 0 0 0 0 0 0 0 0 0 0 0 0 0 0 0 0 0 0 0 0 0 0.107288 8.36873 6.22285 6.43744 8.26143 8.26143 6.43744 6.22285 8.36873 0.107288 0 0 0 0 0 0 0 0 0 0 0 0 0 0 0 0 0 0 0 0 0 0 0 0 0 0 0 0 0 0 0 0.107288 8.26143 6.22285 6.43744 8.26143 6.43744 9.22708 6.33015 1.18018 3.32598 3.64785 0 0 0 0 0 0 0 0 0 0 0 0 0 0 0 0 0 0 0 0 0 0 0 0 0 0 0 0 0 3.64785 3.32598 1.18018 6.33015 9.22708 6.43744 6.43744 9.11979 6.33015 1.07289 3.32598 3.64785 0 0 0 0 0 0 0 0 0 0 0 0 0 0 0 0 0 0 0 0 0 0 0 0 0 0 0 0 0 3.64785 3.32598 1.07289 6.33015 9.11979 6.43744 6.43744 9.11979 6.33015 1.07289 3.32598 3.64785 0 0 0 0 0 0 0 0 0 0 0 0 0 0 0 0 0 0 0 0 0 0 0 0 0 0 0 0 0 3.64785 3.32598 1.07289 6.33015 9.11979 6.43744 6.97391 7.93955 3.32598 5.04264 0.107288 1.9312 5.14993 0 0 0 0 0 0 0 0 0 0 0 0 0 0 0 0 0 0 0 0 0 0 0 0 0 0 0 5.14993 1.9312 0.107288 5.04264 3.32598 7.93955 6.97391 6.43744 9.11979 6.33015 1.07289 3.32598 3.64785 0 0 0 0 0 0 0 0 0 0 0 0 0 0 0 0 0 0 0 0 0 0 0 0 0 0 0 0 0 3.64785 3.32598 1.07289 6.33015 9.11979 6.43744 6.43744 9.11979 6.33015 1.07289 3.32598 3.64785 0 0 0 0 0 0 0 0 0 0 0 0 0 0 0 0 0 0 0 0 0 0 0 0 0 0 0 0 0 3.64785 3.32598 1.07289 6.33015 9.11979 6.43744 6.43744 9.11979 6.33015 1.07289 3.32598 3.64785 0 0 0 0 0 0 0 0 0 0 0 0 0 0 0 0 0 0 0 0 0 0 0 0 0 0 0 0 0 3.64785 3.32598 1.07289 6.33015 9.11979 6.43744 6.43744 9.11979 6.33015 1.07289 3.32598 3.64785 0 0 0 0 0 0 0 0 0 0 0 0 0 0 0 0 0 0 0 0 0 0 0 0 0 0 0 0 0 3.64785 3.32598 1.07289 6.33015 9.11979 6.43744 6.43744 9.22708 6.33015 1.07289 3.32598 3.64785 0 0 0 0 0 0 0 0 0 0 0 0 0 0 0 0 0 0 0 0 0 0 0 0 0 0 0 0 0 3.64785 3.32598 1.07289 6.33015 9.22708 6.43744 8.15414 4.07701 4.82805 8.26143 0.107288 0 0 0 0 0 0 0 0 0 0 0 0 0 0 0 0 0 0 0 0 0 0 0 0 0 0 0 0 0 0 0 0.107288 8.26143 4.82805 4.07701 8.15414 6.43744 9.22708 6.33015 1.07289 3.32598 3.64785 0 0 0 0 0 0 0 0 0 0 0 0 0 0 0 0 0 0 0 0 0 0 0 0 0 0 0 0 0 3.64785 3.32598 1.07289 6.33015 9.22708 6.43744 6.43744 9.22708 6.33015 1.07289 3.32598 3.64785 0 0 0 0 0 0 0 0 0 0 0 0 0 0 0 0 0 0 0 0 0 0 0 0 0 0 0 0 0 3.64785 3.32598 1.07289 6.33015 9.22708 6.43744 8.26143 6.54473 6.22285 8.26143 0.107288 0 0 0 0 0 0 0 0 0 0 0 0 0 0 0 0 0 0 0 0 0 0 0 0 0 0 0 0 0 0 0 0.107288 8.26143 6.22285 6.54473 8.26143 8.26143 6.54473 6.22285 8.26143 0.107288 0 0 0 0 0 0 0 0 0 0 0 0 0 0 0 0 0 0 0 0 0 0 0 0 0 0 0 0 0 0 0 0.107288 8.26143 6.22285 6.54473 8.26143 6.43744 9.22708 6.33015 1.07289 3.32598 3.64785 0 0 0 0 0 0 0 0 0 0 0 0 0 0 0 0 0 0 0 0 0 0 0 0 0 0 0 0 0 3.64785 3.32598 1.07289 6.33015 9.22708 6.43744 6.43744 9.22708 6.33015 1.07289 3.32598 3.64785 0 0 0 0 0 0 0 0 0 0 0 0 0 0 0 0 0 0 0 0 0 0 0 0 0 0 0 0 0 3.64785 3.32598 1.07289 6.33015 9.22708 6.43744 8.15414 4.07701 4.82805 8.26143 0.107288 0 0 0 0 0 0 0 0 0 0 0 0 0 0 0 0 0 0 0 0 0 0 0 0 0 0 0 0 0 0 0 0.107288 8.26143 4.82805 4.07701 8.15414 6.43744 9.22708 6.33015 1.07289 3.32598 3.64785 0 0 0 0 0 0 0 0 0 0 0 0 0 0 0 0 0 0 0 0 0 0 0 0 0 0 0 0 0 3.64785 3.32598 1.07289 6.33015 9.22708 6.43744 6.43744 9.22708 6.33015 1.07289 3.32598 3.64785 0 0 0 0 0 0 0 0 0 0 0 0 0 0 0 0 0 0 0 0 0 0 0 0 0 0 0 0 0 3.64785 3.32598 1.07289 6.33015 9.22708 6.43744 8.26143 6.54473 6.22285 8.26143 0.107288 0 0 0 0 0 0 0 0 0 0 0 0 0 0 0 0 0 0 0 0 0 0 0 0 0 0 0 0 0 0 0 0.107288 8.26143 6.22285 6.54473 8.26143 8.26143 6.54473 6.22285 8.26143 0.107288 0 0 0 0 0 0 0 0 0 0 0 0 0 0 0 0 0 0 0 0 0 0 0 0 0 0 0 0 0 0 0 0.107288 8.26143 6.22285 6.54473 8.26143 6.43744 9.22708 6.33015 1.07289 3.32598 3.64785 0 0 0 0 0 0 0 0 0 0 0 0 0 0 0 0 0 0 0 0 0 0 0 0 0 0 0 0 0 3.64785 3.32598 1.07289 6.33015 9.22708 6.43744 6.43744 9.22708 6.33015 1.18018 3.32598 3.64785 0 0 0 0 0 0 0 0 0 0 0 0 0 0 0 0 0 0 0 0 0 0 0 0 0 0 0 0 0 3.64785 3.32598 1.18018 6.33015 9.22708 6.43744 8.26143 6.54473 6.33015 8.26143 0.107288 0 0 0 0 0 0 0 0 0 0 0 0 0 0 0 0 0 0 0 0 0 0 0 0 0 0 0 0 0 0 0 0.107288 8.26143 6.22285 6.54473 8.26143 8.26143 6.54473 6.22285 8.26143 0.107288 0 0 0 0 0 0 0 0 5.14993 0 0 0 0 0 0 0 0 0 0 0 0 0 0 0 0 0 0 0 0 0 0 0.107288 8.26143 6.22285 6.54473 8.26143 13.8408 11.4803 9.33438 6.22285 8.04684 9.44167 3.64785 3.64785 0 0 3.64785 3.64785 3.64785 1.9312 3.64785 3.64785 3.64785 3.64785 3.64785 0 3.64785 3.64785 0 0 3.64785 3.64785 0 3.64785 3.64785 0 0 3.64785 3.64785 0 0 12.7679 8.15414 3.86243 10.0854 11.8022 14.6992 10.3 15.6649 13.6262 7.72496 7.72496 4.50618 3.32598 3.32598 0.107288 0.107288 3.32598 3.32598 3.32598 0.107288 3.32598 3.32598 3.32598 3.32598 3.32598 0.107288 3.32598 3.32598 0.107288 0.107288 3.32598 3.32598 0.107288 3.32598 3.32598 0.107288 0.107288 3.32598 3.32598 0.107288 0.107288 8.15414 7.83225 4.82805 12.9825 14.27 11.0511 8.36873 7.51037 7.0812 8.47602 4.1843 10.9438 1.50204 1.07289 8.36873 8.26143 1.18018 1.07289 1.07289 5.04264 1.07289 1.07289 1.07289 1.07289 1.07289 8.26143 1.07289 1.07289 8.26143 8.26143 1.07289 1.07289 8.26143 1.07289 1.07289 8.26143 8.26143 1.07289 1.18018 8.26143 8.26143 3.86243 4.82805 15.6649 7.51037 7.93955 15.6649 14.6992 14.1627 15.6649 8.36873 12.6606 10.1927 6.33015 6.33015 6.22285 6.22285 6.33015 6.33015 6.33015 3.32598 6.33015 6.33015 6.33015 6.33015 6.33015 4.82805 6.33015 6.33015 6.22285 6.22285 6.33015 6.33015 4.82805 6.33015 6.33015 6.22285 6.22285 6.33015 6.33015 6.22285 6.22285 10.0854 12.9825 7.51037 15.5576 14.4846 12.9825 10.5146 14.6992 12.7679 10.7292 14.4846 9.65626 9.22708 9.22708 6.43744 6.43744 9.22708 9.11979 9.11979 7.93955 9.11979 9.11979 9.11979 9.11979 9.22708 4.07701 9.22708 9.22708 6.54473 6.54473 9.22708 9.22708 4.07701 9.22708 9.22708 6.54473 6.54473 9.22708 9.22708 6.54473 6.54473 11.8022 14.27 7.93955 14.4846 15.2357 8.69061 14.1627 8.9052 17.489 9.01249 12.2314 10.3 6.54473 6.43744 8.26143 8.26143 6.43744 6.43744 6.43744 6.97391 6.43744 6.43744 6.43744 6.43744 6.43744 8.15414 6.43744 6.43744 8.26143 8.26143 6.43744 6.43744 8.15414 6.43744 6.43744 8.26143 8.26143 6.43744 6.43744 8.26143 8.26143 14.6992 11.0511 15.6649 12.9825 8.69061 18.1328 0.1 0.1 0.1 0.1 0.1 0.1 0.1 0.1 0.1 0.1 0.1 0.1 0.1 0.1 0.1 0.1 0.1 0.1 0.1 0.1 0.1 0.1 0.1 0.1 0.1 0.1 0.1 0.1 0.1 0.1 0.1 0.1 0.1 0.1 0.1 0.1 0.1 0.1 0.1 0.1 0.1 0.1 0.1 0.1 0.1 0.1 0.1 0.1 0.1 0.1 0.1 0.1 0.1 0.1 0.1 0.1 0.1 0.1 0.1 0.1 0.1 0.1 0.1 0.1 0.1 0.1 0.1 0.1 0.1 0.1 0.1 0.1 0.1 0.1 0.1 0.1 0.1 0.1 0.1 0.1 0.1 0.1 0.1 0.1 0.1 0.1 0.1 0.1 0.1 0.1 0.1 0.1 0.1 0.1 0.1 0.1 0.1 0.1 0.1 0.1 0.1 0.1 0.1 0.1 0.1 0.1 0.1 0.1 0.1 0.1 0.1 0.1 0.1 0.1 0.1 0.1 0.1 0.1 0.1 0.1 0.1 0.1 0.1 0.1 0.1 0.1 0.1 0.1 0.1 0.1 0.1 0.1 0.1 0.1 0.1 0.1 0.1 0.1 0.1 0.1 0.1 0.1 0.1 0.1 0.1 0.1 0.1 0.1 0.1 0.1 0.1 0.1 0.1 0.1 0.1 0.1 0.1 0.1 0.1 0.1 0.1 0.1 0.1 0.1 0.1 0.1 0.1 0.1 0.1 0.1 0.1 0.1 0.1 0.1 0.1 0.1 0.1 0.1 0.1 0.1 0.1 0.1 0.1 0.1 0.1 0.1 0.1 0.1 0.1 0.1 0.1 0.1 0.1 0.1 0.1 0.1 0.1 0.1 0.1 0.1 0.1 0.1 0.1 0.1 0.1 0.1 0.1 0.1 0.1 0.1 0.1 0.1 0.1 0.1 0.1 0.1 0.1 0.1 0.1 0.1 0.1 0.1 0.1 0.1 0.1 0.1 0.1 0.1 0.1 0.1 0.1 0.1 0.1 0.1 0.1 0.1 0.1 0.1 0.1 0.1 0.1 0.1 0.1 0.1 0.1 0.1 0.1 0.1 0.1 0.1 0.1 0.1 0.1 0.1 0.1 0.1 0.1 0.1 0.1 0.1 0.1 0.1 0.1 0.1 0.1 0.1 0.1 0.1 0.1 0.1 0.1 0.1 0.1 0.1 0.1 0.1 0.1 0.1 0.1 0.1 0.1 0.1 0.1 0.1 0.1 0.1 0.1 0.1 0.1 0.1 0.1 0.1 0.1 0.1 0.1 0.1 0.1 0.1 0.1 0.1 0.1 0.1 0.1 0.1 0.1 0.1 0.1 0.1 0.1 0.1 0.1 0.1 0.1 0.1 0.1 0.1 0.1 0.1 0.1 0.1 0.1 0.1 0.1 0.1 0.1 0.1 0.1 0.1 
</DataArray>

<DataArray type="Float32" Name="Density" format="ascii">
1000.02 1000.02 1000.02 1000.01 1000.01 1000.01 1000.01 1000.01 1000.01 1000.01 1000.01 1000.01 1000.01 1000.01 1000.01 1000.01 1000.01 1000.01 1000.01 1000.01 1000.01 1000.01 1000.01 1000.01 1000.01 1000.01 1000.01 1000.01 1000.01 1000.01 1000.01 1000.01 1000.01 1000.01 1000.01 1000.02 1000.01 1000.01 1000.02 1000.01 1000.02 1000.02 1000.02 1000.02 1000.01 1000.02 1000.01 1000.01 1000.01 1000.01 1000.01 1000.01 1000.01 1000.01 1000.01 1000.01 1000.01 1000.01 1000.01 1000.01 1000 1000.01 1000.01 1000.01 1000.01 1000.01 1000.01 1000 1000.01 1000.01 1000.01 1000.01 1000.01 1000.01 1000.01 1000.01 1000.01 1000.02 1000.01 1000.02 1000.02 1000.01 1000.02 1000.02 1000.02 1000.01 1000.02 1000.01 1000.01 1000.01 1000.01 1000.01 1000.01 1000.01 1000.01 1000 1000.01 1000.01 1000.01 1000.01 1000.01 1000.01 1000.01 1000.01 1000.01 1000.01 1000.01 1000.01 1000.01 1000.01 1000.01 1000.01 1000.01 1000.01 1000.01 1000.01 1000.01 1000.01 1000.02 1000.01 1000.02 1000.01 1000.02 1000.01 1000.01 1000.01 1000 1000.01 1000.02 1000 1000 1000.01 1000.01 1000 1000 1000 1000.01 1000 1000 1000 1000 1000 1000.01 1000 1000 1000.01 1000.01 1000 1000 1000.01 1000 1000 1000.01 1000.01 1000 1000 1000.01 1000.01 1000.01 1000.01 1000.01 1000.01 1000.01 1000.01 1000.01 1000.01 1000.01 1000 1000.01 1000 1000 1000 1000 1000 1000 1000 1000 1000 1000 1000 1000 1000 1000 1000 1000 1000 1000 1000 1000 1000 1000 1000 1000 1000 1000 1000 1000 1000 1000 1000.01 1000.01 1000 1000.01 1000.02 1000.01 1000.02 1000.01 1000.01 1000.01 1000 1000 1000 1000 1000 1000 1000 1000 1000 1000 1000 1000 1000 1000 1000 1000 1000 1000 1000 1000 1000 1000 1000 1000 1000 1000 1000 1000 1000 1000 1000 1000.01 1000.01 1000.01 1000.01 1000.01 1000.01 1000.01 1000.01 1000.01 1000.01 1000 1000 1000 1000 1000 1000 1000 1000 1000 1000.01 1000 1000 1000 1000 1000 1000 1000 1000 1000 1000 1000 1000 1000 1000 1000 1000 1000 1000 1000 1000 1000 1000 1000 1000 1000.01 1000.01 1000.01 1000.01 1000.01 1000.01 1000 1000.01 1000.01 1000 1000 1000 1000 1000 1000 1000 1000 1000 1000 1000 1000 1000 1000 1000 1000 1000 1000 1000 1000 1000 1000 1000 1000 1000 1000 1000 1000 1000 1000 1000 1000 1000.01 1000.01 1000.01 1000.01 1000.01 1000.01 1000.01 1000 1000 1000 1000 1000 1000 1000 1000 1000 1000 1000 1000 1000 1000 1000 1000 1000 1000 1000 1000 1000 1000 1000 1000 1000 1000 1000 1000 1000 1000 1000 1000 1000 1000.01 1000.01 1000.01 1000.01 1000.01 1000.01 1000.01 1000.01 1000 1000 1000 1000 1000 1000 1000 1000 1000 1000 1000 1000 1000 1000 1000 1000 1000 1000 1000 1000 1000 1000 1000 1000 1000 1000 1000 1000 1000 1000 1000 1000 1000 1000.01 1000.01 1000.01 1000.01 1000.01 1000.01 1000.01 1000 1000 1000 1000 1000 1000 1000 1000 1000 1000 1000 1000 1000 1000 1000 1000 1000 1000 1000 1000 1000 1000 1000 1000 1000 1000 1000 1000 1000 1000 1000 1000 1000 1000 1000 1000.01 1000.01 1000.01 1000.01 1000.01 1000.01 1000 1000 1000 1000 1000 1000 1000 1000 1000 1000 1000 1000 1000 1000 1000 1000 1000 1000 1000 1000 1000 1000 1000 1000 1000 1000 1000 1000 1000 1000 1000 1000 1000 1000 1000 1000.01 1000.01 1000.01 1000.01 1000.01 1000.01 1000 1000 1000 1000 1000 1000 1000 1000 1000 1000 1000 1000 1000 1000 1000 1000 1000 1000 1000 1000 1000 1000 1000 1000 1000 1000 1000 1000 1000 1000 1000 1000 1000 1000 1000 1000.01 1000.01 1000.01 1000.01 1000.01 1000 1000.01 1000 1000 1000.01 1000 1000 1000 1000 1000 1000 1000 1000 1000 1000 1000 1000 1000 1000 1000 1000 1000 1000 1000 1000 1000 1000 1000 1000 1000 1000 1000 1000.01 1000 1000 1000.01 1000 1000.01 1000.01 1000.01 1000.01 1000.01 1000 1000 1000 1000 1000 1000 1000 1000 1000 1000 1000 1000 1000 1000 1000 1000 1000 1000 1000 1000 1000 1000 1000 1000 1000 1000 1000 1000 1000 1000 1000 1000 1000 1000 1000 1000.01 1000.01 1000.01 1000.01 1000.01 1000.01 1000 1000 1000 1000 1000 1000 1000 1000 1000 1000 1000 1000 1000 1000 1000 1000 1000 1000 1000 1000 1000 1000 1000 1000 1000 1000 1000 1000 1000 1000 1000 1000 1000 1000 1000 1000.01 1000.01 1000.01 1000.01 1000.01 1000.01 1000 1000 1000 1000 1000 1000 1000 1000 1000 1000 1000 1000 1000 1000 1000 1000 1000 1000 1000 1000 1000 1000 1000 1000 1000 1000 1000 1000 1000 1000 1000 1000 1000 1000 1000 1000.01 1000.01 1000.01 1000.01 1000.01 1000.01 1000 1000 1000 1000 1000 1000 1000 1000 1000 1000 1000 1000 1000 1000 1000 1000 1000 1000 1000 1000 1000 1000 1000 1000 1000 1000 1000 1000 1000 1000 1000 1000 1000 1000 1000 1000.01 1000.01 1000.01 1000.01 1000.01 1000.01 1000 1000 1000 1000 1000 1000 1000 1000 1000 1000 1000 1000 1000 1000 1000 1000 1000 1000 1000 1000 1000 1000 1000 1000 1000 1000 1000 1000 1000 1000 1000 1000 1000 1000 1000 1000.01 1000.01 1000.01 1000.01 1000 1000.01 1000.01 1000 1000 1000 1000 1000 1000 1000 1000 1000 1000 1000 1000 1000 1000 1000 1000 1000 1000 1000 1000 1000 1000 1000 1000 1000 1000 1000 1000 1000 1000 1000 1000 1000 1000.01 1000.01 1000 1000.01 1000.01 1000.01 1000.01 1000 1000 1000 1000 1000 1000 1000 1000 1000 1000 1000 1000 1000 1000 1000 1000 1000 1000 1000 1000 1000 1000 1000 1000 1000 1000 1000 1000 1000 1000 1000 1000 1000 1000 1000 1000.01 1000.01 1000.01 1000.01 1000.01 1000.01 1000 1000 1000 1000 1000 1000 1000 1000 1000 1000 1000 1000 1000 1000 1000 1000 1000 1000 1000 1000 1000 1000 1000 1000 1000 1000 1000 1000 1000 1000 1000 1000 1000 1000 1000 1000.01 1000.01 1000.01 1000.01 1000.01 1000.01 1000.01 1000 1000 1000 1000 1000 1000 1000 1000 1000 1000 1000 1000 1000 1000 1000 1000 1000 1000 1000 1000 1000 1000 1000 1000 1000 1000 1000 1000 1000 1000 1000 1000 1000 1000.01 1000.01 1000.01 1000.01 1000.01 1000.01 1000.01 1000.01 1000 1000 1000 1000 1000 1000 1000 1000 1000 1000 1000 1000 1000 1000 1000 1000 1000 1000 1000 1000 1000 1000 1000 1000 1000 1000 1000 1000 1000 1000 1000 1000 1000 1000.01 1000.01 1000.01 1000.01 1000.01 1000.01 1000.01 1000 1000 1000 1000 1000 1000 1000 1000 1000 1000 1000 1000 1000 1000 1000 1000 1000 1000 1000 1000 1000 1000 1000 1000 1000 1000 1000 1000 1000 1000 1000 1000 1000 1000 1000 1000.01 1000.01 1000.01 1000.01 1000.01 1000.01 1000 1000 1000 1000 1000 1000 1000 1000 1000 1000 1000 1000 1000 1000 1000 1000 1000 1000 1000 1000 1000 1000 1000 1000 1000 1000 1000 1000 1000 1000 1000 1000 1000 1000 1000 1000.01 1000.01 1000.01 1000.01 1000 1000.01 1000.01 1000 1000 1000 1000 1000 1000 1000 1000 1000 1000 1000 1000 1000 1000 1000 1000 1000 1000 1000 1000 1000 1000 1000 1000 1000 1000 1000 1000 1000 1000 1000 1000 1000 1000.01 1000.01 1000 1000.01 1000.01 1000.01 1000.01 1000 1000 1000 1000 1000 1000 1000 1000 1000 1000 1000 1000 1000 1000 1000 1000 1000 1000 1000 1000 1000 1000 1000 1000 1000 1000 1000 1000 1000 1000 1000 1000 1000 1000 1000 1000.01 1000.01 1000.01 1000.01 1000.01 1000.01 1000 1000 1000 1000 1000 1000 1000 1000 1000 1000 1000 1000 1000 1000 1000 1000 1000 1000 1000 1000 1000 1000 1000 1000 1000 1000 1000 1000 1000 1000 1000 1000 1000 1000 1000 1000.01 1000.01 1000.01 1000.01 1000.01 1000.01 1000.01 1000 1000 1000 1000 1000 1000 1000 1000 1000 1000 1000 1000 1000 1000 1000 1000 1000 1000 1000 1000 1000 1000 1000 1000 1000 1000 1000 1000 1000 1000 1000 1000 1000 1000.01 1000.01 1000.01 1000.01 1000.01 1000.01 1000.01 1000.01 1000 1000 1000 1000 1000 1000 1000 1000 1000 1000 1000 1000 1000 1000 1000 1000 1000 1000 1000 1000 1000 1000 1000 1000 1000 1000 1000 1000 1000 1000 1000 1000 1000 1000.01 1000.01 1000.01 1000.01 1000.01 1000.01 1000.01 1000 1000 1000 1000 1000 1000 1000 1000 1000 1000 1000 1000 1000 1000 1000 1000 1000 1000 1000 1000 1000 1000 1000 1000 1000 1000 1000 1000 1000 1000 1000 1000 1000 1000 1000 1000.01 1000.01 1000.01 1000.01 1000.01 1000.01 1000 1000 1000 1000 1000 1000 1000 1000 1000 1000 1000 1000 1000 1000 1000 1000 1000 1000 1000 1000 1000 1000 1000 1000 1000 1000 1000 1000 1000 1000 1000 1000 1000 1000 1000 1000.01 1000.01 1000.01 1000.01 1000.01 1000.01 1000.01 1000 1000 1000 1000 1000 1000 1000 1000 1000 1000 1000 1000 1000 1000 1000 1000 1000 1000 1000 1000 1000 1000 1000 1000 1000 1000 1000 1000 1000 1000 1000 1000 1000 1000.01 1000.01 1000.01 1000.01 1000.01 1000.01 1000.01 1000.01 1000 1000 1000 1000 1000 1000 1000 1000 1000 1000.01 1000 1000 1000 1000 1000 1000 1000 1000 1000 1000 1000 1000 1000 1000 1000 1000 1000 1000 1000 1000 1000 1000 1000 1000.01 1000.01 1000.01 1000.01 1000.02 1000.01 1000.01 1000.01 1000.01 1000.01 1000 1000 1000 1000 1000 1000 1000 1000 1000 1000 1000 1000 1000 1000 1000 1000 1000 1000 1000 1000 1000 1000 1000 1000 1000 1000 1000 1000 1000 1000.01 1000.01 1000 1000.01 1000.01 1000.02 1000.01 1000.02 1000.02 1000.01 1000.01 1000.01 1000 1000 1000 1000 1000 1000 1000 1000 1000 1000 1000 1000 1000 1000 1000 1000 1000 1000 1000 1000 1000 1000 1000 1000 1000 1000 1000 1000 1000 1000.01 1000.01 1000.01 1000.01 1000.02 1000.01 1000.01 1000.01 1000.01 1000.01 1000 1000.01 1000 1000 1000.01 1000.01 1000 1000 1000 1000.01 1000 1000 1000 1000 1000 1000.01 1000 1000 1000.01 1000.01 1000 1000 1000.01 1000 1000 1000.01 1000.01 1000 1000 1000.01 1000.01 1000 1000.01 1000.02 1000.01 1000.01 1000.02 1000.02 1000.02 1000.02 1000.01 1000.01 1000.01 1000.01 1000.01 1000.01 1000.01 1000.01 1000.01 1000.01 1000 1000.01 1000.01 1000.01 1000.01 1000.01 1000.01 1000.01 1000.01 1000.01 1000.01 1000.01 1000.01 1000.01 1000.01 1000.01 1000.01 1000.01 1000.01 1000.01 1000.01 1000.01 1000.01 1000.01 1000.01 1000.02 1000.02 1000.01 1000.01 1000.02 1000.01 1000.01 1000.02 1000.01 1000.01 1000.01 1000.01 1000.01 1000.01 1000.01 1000.01 1000.01 1000.01 1000.01 1000.01 1000.01 1000.01 1000 1000.01 1000.01 1000.01 1000.01 1000.01 1000.01 1000 1000.01 1000.01 1000.01 1000.01 1000.01 1000.01 1000.01 1000.01 1000.01 1000.02 1000.01 1000.02 1000.02 1000.01 1000.02 1000.01 1000.02 1000.01 1000.01 1000.01 1000.01 1000.01 1000.01 1000.01 1000.01 1000.01 1000.01 1000.01 1000.01 1000.01 1000.01 1000.01 1000.01 1000.01 1000.01 1000.01 1000.01 1000.01 1000.01 1000.01 1000.01 1000.01 1000.01 1000.01 1000.01 1000.01 1000.01 1000.01 1000.01 1000.02 1000.01 1000.02 1000.01 1000.01 1000.02 1000 1000 1000 1000 1000 1000 1000 1000 1000 1000 1000 1000 1000 1000 1000 1000 1000 1000 1000 1000 1000 1000 1000 1000 1000 1000 1000 1000 1000 1000 1000 1000 1000 1000 1000 1000 1000 1000 1000 1000 1000 1000 1000 1000 1000 1000 1000 1000 1000 1000 1000 1000 1000 1000 1000 1000 1000 1000 1000 1000 1000 1000 1000 1000 1000 1000 1000 1000 1000 1000 1000 1000 1000 1000 1000 1000 1000 1000 1000 1000 1000 1000 1000 1000 1000 1000 1000 1000 1000 1000 1000 1000 1000 1000 1000 1000 1000 1000 1000 1000 1000 1000 1000 1000 1000 1000 1000 1000 1000 1000 1000 1000 1000 1000 1000 1000 1000 1000 1000 1000 1000 1000 1000 1000 1000 1000 1000 1000 1000 1000 1000 1000 1000 1000 1000 1000 1000 1000 1000 1000 1000 1000 1000 1000 1000 1000 1000 1000 1000 1000 1000 1000 1000 1000 1000 1000 1000 1000 1000 1000 1000 1000 1000 1000 1000 1000 1000 1000 1000 1000 1000 1000 1000 1000 1000 1000 1000 1000 1000 1000 1000 1000 1000 1000 1000 1000 1000 1000 1000 1000 1000 1000 1000 1000 1000 1000 1000 1000 1000 1000 1000 1000 1000 1000 1000 1000 1000 1000 1000 1000 1000 1000 1000 1000 1000 1000 1000 1000 1000 1000 1000 1000 1000 1000 1000 1000 1000 1000 1000 1000 1000 1000 1000 1000 1000 1000 1000 1000 1000 1000 1000 1000 1000 1000 1000 1000 1000 1000 1000 1000 1000 1000 1000 1000 1000 1000 1000 1000 1000 1000 1000 1000 1000 1000 1000 1000 1000 1000 1000 1000 1000 1000 1000 1000 1000 1000 1000 1000 1000 1000 1000 1000 1000 1000 1000 1000 1000 1000 1000 1000 1000 1000 1000 1000 1000 1000 1000 1000 1000 1000 1000 1000 1000 1000 1000 1000 1000 1000 1000 1000 1000 1000 1000 1000 1000 1000 1000 1000 1000 1000 1000 1000 1000 1000 1000 1000 1000 1000 
</DataArray>
<DataArray type="Float32" Name="Velocity" NumberOfComponents="3" format="ascii">
0.0043178964 0.0059605972 0
0.00013616256 0.0058296188 0
-0.00017653838 0.0053851292 0
0.00018342421 0.0047305329 0
6.4916567e-05 0.0040148953 0
7.0617396e-05 0.002862632 0
6.0535854e-07 0.0040631401 0
7.1906351e-07 0.0040631327 0
4.6886544e-07 0.0028887417 0
3.3523218e-06 0.0028873701 0
-8.2653912e-07 0.0040631285 0
1.5320306e-07 0.0040631406 0
5.8695953e-08 0.0040631359 0
2.7219105e-10 0.0049534808 0
-6.3281689e-08 0.0040631387 0
-1.2523076e-06 0.0040631415 0
-8.2403908e-08 0.0040631415 0
3.6740619e-07 0.0040631462 0
1.118026e-06 0.0040631229 0
5.572461e-07 0.0028692104 0
2.3610784e-07 0.0040631401 0
2.9329431e-07 0.0040631439 0
-7.8738975e-07 0.0028801044 0
6.2484787e-07 0.0028801044 0
-3.828676e-07 0.0040631406 0
-1.3402463e-07 0.0040631411 0
1.1824314e-10 0.0028692752 0
1.3402465e-07 0.0040631411 0
3.828676e-07 0.0040631406 0
-6.0360685e-07 0.0028801044 0
-8.1629636e-09 0.0028801069 0
-5.0982641e-07 0.0040631406 0
5.1223674e-07 0.0040631406 0
-5.8371552e-06 0.0028801784 0
-8.3144164e-07 0.0028800545 0
-0.00016786864 0.0040405774 0
-9.2996881e-05 0.0039544199 0
-0.00011445906 0.0029300484 0
-0.00099595985 0.0040924186 0
-0.00014138105 0.0038710244 0
-0.0045710742 0.0044483677 0
0.0041505466 0.0011871213 0
0.000753937 0.0012141734 0
0.00018968969 0.00066209905 0
0.00010389394 0.00072837633 0
0.00032357022 0.00090786023 0
1.4159649e-05 0.00076482468 0
1.237623e-05 0.0011130216 0
1.2082558e-05 0.0011127704 0
-1.1627498e-06 0.0009296803 0
1.2504371e-07 0.00092946208 0
3.6096205e-06 0.001112856 0
4.8895108e-06 0.0011130314 0
3.9661795e-06 0.0011130971 0
-6.7130247e-07 0.0014141771 0
4.5206016e-06 0.0011129556 0
-1.2413071e-07 0.0011130741 0
8.3663599e-07 0.0011130964 0
6.883896e-07 0.0011130797 0
4.5322404e-06 0.0011129889 0
-3.146905e-09 0.00077863544 0
-1.2953859e-06 0.0011129763 0
-6.818745e-07 0.0011129467 0
-1.1303467e-06 0.00092917297 0
1.0803586e-06 0.00092917355 0
1.1166865e-06 0.0011129549 0
2.1458827e-06 0.0011129401 0
7.9644691e-10 0.00077850831 0
-3.8126304e-06 0.0011129554 0
-2.4183601e-06 0.0011129403 0
-9.1338728e-07 0.00092916918 0
1.3666603e-06 0.00092915981 0
-7.9414012e-06 0.0011127595 0
-5.449253e-06 0.0011127507 0
-7.0773541e-07 0.00092896243 0
1.8465477e-06 0.0009291434 0
-0.00010183686 0.0011101714 0
-0.00018296005 0.0010797837 0
-0.00019279201 0.00065097719 0
-0.00042556619 0.00047481642 0
-0.00064516399 0.00065243838 0
-0.0038163823 7.1716691e-05 0
0.003577051 0.00061882345 0
0.00043731334 0.00039862748 0
0.00065135583 0.00018635935 0
0.00029173898 0.00013893147 0
0.00022132225 -1.0402308e-05 0
8.3942774e-05 0.00012687089 0
9.2155562e-07 0.00016103016 0
7.9714682e-06 0.00016038289 0
2.0736982e-06 0.00016953054 0
3.6627537e-06 0.00017004024 0
-4.3104424e-07 0.00015998613 0
-1.710146e-06 0.00015945641 0
-5.3197359e-06 0.00015912304 0
-1.3156289e-06 0.00010883026 0
2.6464102e-06 0.00015932843 0
2.0885759e-07 0.00015941059 0
-7.2984068e-07 0.00015938983 0
3.0420897e-06 0.00015939907 0
-2.9060803e-07 0.00015949892 0
2.0062173e-06 0.00014789611 0
-1.1559241e-06 0.00015948122 0
2.108379e-06 0.00015949516 0
-4.1696408e-06 0.00017041329 0
3.4610096e-06 0.000170427 0
-1.7726786e-06 0.0001594715 0
-3.6574269e-07 0.0001595237 0
-1.7319322e-06 0.00014775257 0
-1.9531847e-06 0.00015957555 0
-3.3644533e-06 0.00015976325 0
-2.3427349e-06 0.0001701424 0
-7.7992752e-07 0.00016995311 0
1.2883554e-06 0.00016007015 0
-1.5476708e-06 0.0001602816 0
-2.9080945e-06 0.00016975492 0
-1.975572e-05 0.00016902633 0
-7.5550837e-05 0.00015284585 0
-0.00014230663 0.00013052652 0
-0.00028697011 0.00016675936 0
-0.00038839947 0.00040457115 0
-0.00041557892 0.00049997395 0
-0.0039586215 0.00087715115 0
0.0041181361 0.00034921957 0
0.00088206178 0.00030367606 0
0.00045672504 0.00026925886 0
9.5555391e-05 0.00011892874 0
8.3526007e-05 0.00017168338 0
6.0731232e-05 0.0001358088 0
1.248983e-05 0.0001096233 0
-2.1193828e-06 0.00010928006 0
3.8593444e-06 0.0001371213 0
1.8565087e-06 0.00013710854 0
3.6760975e-06 0.00010909055 0
2.485218e-09 0.00010884031 0
-2.3962178e-07 0.00010881713 0
-3.8103138e-07 0.00014309972 0
-3.3149504e-07 0.00010881314 0
-4.3453397e-07 0.0001088404 0
2.9522545e-07 0.00010884042 0
5.278481e-07 0.00010883953 0
1.1782097e-06 0.00010894751 0
7.3806808e-07 0.00013182644 0
-5.5613759e-07 0.00010895389 0
-2.7491963e-06 0.00010906885 0
8.47541e-07 0.00013699172 0
-4.293905e-07 0.00013700369 0
3.352053e-06 0.00010905695 0
1.3805854e-08 0.00010895074 0
1.1856197e-10 0.00013199616 0
-1.1869579e-08 0.00010895082 0
-3.3476783e-06 0.00010905747 0
4.4119309e-07 0.00013700296 0
1.4866497e-06 0.00013704693 0
1.4373667e-06 0.00010905705 0
-3.6783749e-06 0.00010913162 0
-1.0256087e-05 0.00013710387 0
-6.3411817e-06 0.00013663385 0
-5.5484408e-05 0.00011052107 0
-0.00015265823 9.4584713e-05 0
-0.00018767136 0.00023149434 0
-0.00015631311 0.00029822861 0
-0.00099120406 0.0001161945 0
-0.0040800972 0.00025223693 0
0.0041636783 0.00048244174 0
0.00097919605 9.4572963e-05 0
0.00027657687 0.00011510102 0
0.00013728008 7.6240845e-05 0
9.9871577e-05 8.4159132e-05 0
5.1730793e-05 7.4938489e-06 0
4.9649402e-06 8.5700667e-05 0
4.0151408e-06 8.5563501e-05 0
2.7031876e-06 8.8850993e-06 0
-1.1865371e-06 8.8182878e-06 0
2.6077153e-08 8.5543936e-05 0
-1.6530636e-07 8.5531865e-05 0
-1.2804511e-06 8.5498817e-05 0
-1.9389964e-07 7.2687391e-05 0
-3.6832569e-07 8.5495652e-05 0
1.8956186e-07 8.5531894e-05 0
1.0228317e-07 8.5531065e-05 0
1.2237e-06 8.5531254e-05 0
2.1867707e-07 8.5556792e-05 0
5.3770606e-07 8.376087e-06 0
1.0560119e-07 8.5536434e-05 0
8.8773908e-07 8.5534855e-05 0
7.3806729e-07 8.4088833e-06 0
-7.3805853e-07 8.4088879e-06 0
-2.3024442e-07 8.5534761e-05 0
2.0053009e-10 8.5533888e-05 0
1.4352963e-15 8.3815858e-06 0
-2.0053009e-10 8.5533888e-05 0
2.3024442e-07 8.5534761e-05 0
7.3805819e-07 8.408887e-06 0
-7.3843279e-07 8.4089907e-06 0
-3.761985e-07 8.5536696e-05 0
3.7631216e-07 8.5536762e-05 0
7.0768141e-07 8.4093444e-06 0
-1.6211528e-05 8.218306e-06 0
-0.00011870689 5.0736762e-05 0
-7.5983837e-05 0.00016924378 0
-0.00011215066 6.6254208e-05 0
-0.00015456702 0.00010818191 0
-0.0010804762 0.00021758786 0
-0.0038742081 0.00024305048 0
0.0029851163 0.00018332234 0
0.00077351276 0.00014844611 0
0.00030409495 7.1217546e-05 0
0.00012709213 0.00012346303 0
5.6630015e-05 6.5493674e-05 0
4.7680696e-06 3.0053275e-06 0
3.9226646e-07 3.6439778e-05 0
4.7055988e-07 3.6438054e-05 0
5.44827e-07 1.6204377e-08 0
-6.3452313e-07 1.6344568e-08 0
-4.1792961e-07 3.643769e-05 0
-2.8575009e-09 3.6436872e-05 0
9.2259694e-07 3.6436562e-05 0
6.4553557e-11 7.7043893e-05 0
-9.251554e-07 3.6436624e-05 0
-2.8856869e-07 3.6436886e-05 0
-1.2301092e-07 3.6436879e-05 0
-5.5270384e-08 3.6436966e-05 0
4.3650405e-07 3.6438858e-05 0
3.998104e-07 1.139752e-08 0
-1.441262e-07 3.6437894e-05 0
4.3887368e-07 3.6437403e-05 0
3.6822473e-07 1.4232242e-08 0
-3.682247e-07 1.4232244e-08 0
-4.3730483e-07 3.6437305e-05 0
1.3821763e-07 3.6437876e-05 0
4.6391338e-15 1.2622126e-08 0
-1.3821763e-07 3.6437876e-05 0
4.3730483e-07 3.6437305e-05 0
3.682247e-07 1.4232244e-08 0
-3.6822482e-07 1.4232304e-08 0
3.8654346e-08 3.6437319e-05 0
-3.8654346e-08 3.6437319e-05 0
3.6638349e-07 1.4232974e-08 0
-3.2232963e-06 4.5275819e-09 0
-3.1512944e-05 9.1915841e-05 0
7.8426483e-06 9.5087198e-05 0
-0.0001517005 2.6933438e-05 0
-0.00015862823 7.9538564e-05 0
-0.00090933294 6.1652849e-05 0
-0.0028998775 4.9977534e-05 0
0.0040156175 1.0665093e-05 0
0.0012352865 4.7666927e-05 0
0.00027273782 0.00010377993 0
0.00010206459 5.9319693e-05 0
0.000142213 6.4786495e-06 0
6.2950676e-05 -8.4681096e-06 0
2.13012e-06 1.4303388e-06 0
6.7200716e-09 1.4298349e-06 0
0 -4.7746509e-09 0
0 -4.7746509e-09 0
-4.7553468e-09 1.4298356e-06 0
4.5260413e-09 1.4298348e-06 0
-1.4539415e-07 1.4297681e-06 0
0 4.9548136e-05 0
1.453953e-07 1.4297681e-06 0
-4.5167936e-09 1.4298348e-06 0
4.7625566e-09 1.4298348e-06 0
-4.7854058e-09 1.4298348e-06 0
4.7640598e-09 1.4298357e-06 0
0 -4.7746509e-09 0
-4.7730455e-09 1.4298357e-06 0
4.7686899e-09 1.4298356e-06 0
0 -4.7746509e-09 0
0 -4.7746509e-09 0
-4.7686899e-09 1.4298356e-06 0
4.7730455e-09 1.4298357e-06 0
0 -4.7746509e-09 0
-4.7730455e-09 1.4298357e-06 0
4.7686899e-09 1.4298356e-06 0
0 -4.7746509e-09 0
0 -4.7746509e-09 0
-4.7688933e-09 1.4298356e-06 0
4.7688933e-09 1.4298356e-06 0
-9.4050323e-10 -4.7746509e-09 0
-1.434694e-06 -4.817541e-09 0
-3.6524139e-05 1.9713295e-06 0
-8.5604086e-05 4.9335395e-06 0
-0.00010958526 1.158588e-05 0