<?xml version="1.0" ?>

<VTKFile type="UnstructuredGrid" version="0.1" byte_order="BigEndian">

<UnstructuredGrid>

<Piece NumberOfPoints= " 2009 " NumberOfCells=" 2009 ">

<PointData Scalars="Pressure" Vectors="Velocity">

<DataArray type="Float32" Name="Pressure" format="ascii">

24.7857 19.2058 26.288 7.51037 10.9438 8.69061 10.8365 10.8365 8.69061 8.69061 10.8365 10.8365 10.8365 7.18849 10.8365 10.8365 10.8365 10.8365 10.8365 8.69061 10.8365 10.8365 8.69061 8.69061 10.8365 10.8365 8.69061 10.8365 10.8365 8.69061 8.69061 10.8365 10.8365 8.69061 8.69061 10.8365 10.8365 8.58331 34.9801 25.0003 30.1511 23.7126 18.4547 20.3862 4.2916 6.86661 9.54897 6.97391 6.97391 9.54897 9.54897 6.97391 6.97391 6.97391 4.82805 6.97391 6.97391 6.97391 6.97391 6.97391 9.54897 6.97391 6.97391 9.54897 9.54897 6.97391 6.97391 9.54897 6.97391 6.97391 9.54897 9.54897 6.97391 6.97391 9.54897 9.54897 6.97391 6.97391 9.22708 24.893 18.8839 24.1418 23.8199 17.2744 22.5322 6.97391 10.3 2.46765 10.0854 10.0854 2.46765 2.46765 10.0854 10.0854 10.0854 6.97391 10.0854 10.0854 10.0854 10.0854 10.0854 2.46765 10.0854 10.0854 2.46765 2.46765 10.0854 10.0854 2.46765 10.0854 10.0854 2.46765 2.46765 10.0854 10.0854 2.46765 2.46765 10.0854 10.0854 3.64785 35.7313 25.2149 35.302 25.6441 20.8154 24.571 3.64785 0.321865 0 0.429154 0.429154 0 0 0.429154 0.429154 0.429154 4.82805 0.429154 0.429154 0.429154 0.429154 0.429154 0 0.429154 0.429154 0 0 0.429154 0.429154 0 0.429154 0.429154 0 0 0.429154 0.429154 0 0 0.429154 0.429154 0.429154 11.4803 7.40308 12.7679 13.197 8.58331 12.5533 0.321865 0 0 0 0 0 0 0 0 0 0 0 0 0 0 0 0 0 0 0 0 0 0 0 0 0 0 0 0 0 0 0 0 0 0.321865 10.1927 6.86661 10.9438 8.69061 9.54897 2.46765 0 0 0 0 0 0 0 0 0 0 0 0 0 0 0 0 0 0 0 0 0 0 0 0 0 0 0 0 0 0 0 0 0 0 0 2.46765 9.54897 8.69061 10.8365 6.97391 10.0854 0.429154 0 0 0 0 0 0 0 0 0 0 0 0 0 0 0 0 0 0 0 0 0 0 0 0 0 0 0 0 0 0 0 0 0 0.429154 10.0854 6.97391 10.8365 10.8365 6.97391 10.0854 0.429154 0 0 0 0 0 0 0 0 0 0 0 0 0 0 0 0 0 0 0 0 0 0 0 0 0 0 0 0 0 0 0 0 0 0.429154 10.0854 6.97391 10.8365 8.69061 9.54897 2.46765 0 0 0 0 0 0 0 0 0 0 0 0 0 0 0 0 0 0 0 0 0 0 0 0 0 0 0 0 0 0 0 0 0 0 0 2.46765 9.54897 8.69061 8.69061 9.54897 2.46765 0 0 0 0 0 0 0 0 0 0 0 0 0 0 0 0 0 0 0 0 0 0 0 0 0 0 0 0 0 0 0 0 0 0 0 2.46765 9.54897 8.69061 10.8365 6.97391 10.0854 0.429154 0 0 0 0 0 0 0 0 0 0 0 0 0 0 0 0 0 0 0 0 0 0 0 0 0 0 0 0 0 0 0 0 0 0.429154 10.0854 6.97391 10.8365 10.8365 6.97391 10.0854 0.429154 0 0 0 0 0 0 0 0 0 0 0 0 0 0 0 0 0 0 0 0 0 0 0 0 0 0 0 0 0 0 0 0 0 0.429154 10.0854 6.97391 10.8365 10.8365 6.97391 10.0854 0.429154 0 0 0 0 0 0 0 0 0 0 0 0 0 0 0 0 0 0 0 0 0 0 0 0 0 0 0 0 0 0 0 0 0 0.429154 10.0854 6.97391 10.8365 7.18849 4.82805 6.97391 4.82805 0 0 0 0 0 0 0 0 0 0 0 0 0 0 0 0 0 0 0 0 0 0 0 0 0 0 0 0 0 0 0 0 0 4.82805 6.97391 4.82805 7.18849 10.8365 6.97391 10.0854 0.429154 0 0 0 0 0 0 0 0 0 0 0 0 0 0 0 0 0 0 0 0 0 0 0 0 0 0 0 0 0 0 0 0 0 0.429154 10.0854 6.97391 10.8365 10.8365 6.97391 10.0854 0.429154 0 0 0 0 0 0 0 0 0 0 0 0 0 0 0 0 0 0 0 0 0 0 0 0 0 0 0 0 0 0 0 0 0 0.429154 10.0854 6.97391 10.8365 10.8365 6.97391 10.0854 0.429154 0 0 0 0 0 0 0 0 0 0 0 0 0 0 0 0 0 0 0 0 0 0 0 0 0 0 0 0 0 0 0 0 0 0.429154 10.0854 6.97391 10.8365 10.8365 6.97391 10.0854 0.429154 0 0 0 0 0 0 0 0 0 0 0 0 0 0 0 0 0 0 0 0 0 0 0 0 0 0 0 0 0 0 0 0 0 0.429154 10.0854 6.97391 10.8365 10.8365 6.97391 10.0854 0.429154 0 0 0 0 0 0 0 0 0 0 0 0 0 0 0 0 0 0 0 0 0 0 0 0 0 0 0 0 0 0 0 0 0 0.429154 10.0854 6.97391 10.8365 8.69061 9.54897 2.46765 0 0 0 0 0 0 0 0 0 0 0 0 0 0 0 0 0 0 0 0 0 0 0 0 0 0 0 0 0 0 0 0 0 0 0 2.46765 9.54897 8.69061 10.8365 6.97391 10.0854 0.429154 0 0 0 0 0 0 0 0 0 0 0 0 0 0 0 0 0 0 0 0 0 0 0 0 0 0 0 0 0 0 0 0 0 0.429154 10.0854 6.97391 10.8365 10.8365 6.97391 10.0854 0.429154 0 0 0 0 0 0 0 0 0 0 0 0 0 0 0 0 0 0 0 0 0 0 0 0 0 0 0 0 0 0 0 0 0 0.429154 10.0854 6.97391 10.8365 8.69061 9.54897 2.46765 0 0 0 0 0 0 0 0 0 0 0 0 0 0 0 0 0 0 0 0 0 0 0 0 0 0 0 0 0 0 0 0 0 0 0 2.46765 9.54897 8.69061 8.69061 9.54897 2.46765 0 0 0 0 0 0 0 0 0 0 0 0 0 0 0 0 0 0 0 0 0 0 0 0 0 0 0 0 0 0 0 0 0 0 0 2.46765 9.54897 8.69061 10.8365 6.97391 10.0854 0.429154 0 0 0 0 0 0 0 0 0 0 0 0 0 0 0 0 0 0 0 0 0 0 0 0 0 0 0 0 0 0 0 0 0 0.429154 10.0854 6.97391 10.8365 10.8365 6.97391 10.0854 0.429154 0 0 0 0 0 0 0 0 0 0 0 0 0 0 0 0 0 0 0 0 0 0 0 0 0 0 0 0 0 0 0 0 0 0.429154 10.0854 6.97391 10.8365 8.69061 9.54897 2.46765 0 0 0 0 0 0 0 0 0 0 0 0 0 0 0 0 0 0 0 0 0 0 0 0 0 0 0 0 0 0 0 0 0 0 0 2.46765 9.54897 8.69061 10.8365 6.97391 10.0854 0.429154 0 0 0 0 0 0 0 0 0 0 0 0 0 0 0 0 0 0 0 0 0 0 0 0 0 0 0 0 0 0 0 0 0 0.429154 10.0854 6.97391 10.8365 10.8365 6.97391 10.0854 0.429154 0 0 0 0 0 0 0 0 0 0 0 0 0 0 0 0 0 0 0 0 0 0 0 0 0 0 0 0 0 0 0 0 0 0.429154 10.0854 6.97391 10.8365 8.69061 9.54897 2.46765 0 0 0 0 0 0 0 0 0 0 0 0 0 0 0 0 0 0 0 0 0 0 0 0 0 0 0 0 0 0 0 0 0 0 0 2.46765 9.54897 8.69061 8.69061 9.54897 2.46765 0 0 0 0 0 0 0 0 0 0 0 0 0 0 0 0 0 0 0 0 0 0 0 0 0 0 0 0 0 0 0 0 0 0 0 2.46765 9.54897 8.69061 10.8365 6.97391 10.0854 0.429154 0 0 0 0 0 0 0 0 0 0 0 0 0 0 0 0 0 0 0 0 0 0 0 0 0 0 0 0 0 0 0 0 0 0.429154 10.0854 6.97391 10.8365 10.8365 6.97391 10.0854 0.429154 0 0 0 0 0 0 0 0 0 0 0 0 0 0 0 0 0 0 0 0 0 0 0 0 0 0 0 0 0 0 0 0 0 0.429154 10.0854 6.97391 10.8365 8.69061 9.54897 2.46765 0 0 0 0 0 0 0 0 0 0 0 0 0 0 0 0 0 0 0 0 0 0 0 0 0 0 0 0 0 0 0 0 0 0 0 2.46765 9.54897 8.69061 8.69061 9.54897 2.46765 0 0 0 0 0 0 0 0 0 0 0 0 0 0 0 0 0 0 0 0 0 0 0 0 0 0 0 0 0 0 0 0 0 0 0 2.46765 9.54897 8.69061 10.8365 6.97391 10.0854 0.429154 0 0 0 0 0 0 0 0 0 0 0 0 0 0 0 0 0 0 0 0 0 0 0 0 0 0 0 0 0 0 0 0 0 0.429154 10.0854 6.97391 10.8365 10.8365 6.97391 10.0854 0.429154 0 0 0 0 0 0 0 0 0 0 0 0 0 0 0 0 0 0 0 0 0 0 0 0 0 0 0 0 0 0 0 0 0 0.429154 10.0854 6.97391 10.8365 8.58331 9.22708 3.64785 0.429154 0.321865 0 0.429154 0.429154 0 0 0.429154 0.429154 0.429154 4.82805 0.429154 0.429154 0.429154 0.429154 0.429154 0 0.429154 0.429154 0 0 0.429154 0.429154 0 0.429154 0.429154 0 0 0.429154 0.429154 0 0 0.429154 0.429154 0 3.75514 9.22708 8.58331 34.9801 24.893 35.7313 11.4803 10.1927 2.46765 10.0854 10.0854 2.46765 2.46765 10.0854 10.0854 10.0854 6.97391 10.0854 10.0854 10.0854 10.0854 10.0854 2.46765 10.0854 10.0854 2.46765 2.46765 10.0854 10.0854 2.46765 10.0854 10.0854 2.46765 2.46765 10.0854 10.0854 2.46765 2.46765 10.0854 10.0854 3.75514 35.9459 25.0003 35.302 25.0003 18.8839 25.2149 7.40308 6.86661 9.54897 6.97391 6.97391 9.54897 9.54897 6.97391 6.97391 6.97391 4.82805 6.97391 6.97391 6.97391 6.97391 6.97391 9.54897 6.97391 6.97391 9.54897 9.54897 6.97391 6.97391 9.54897 6.97391 6.97391 9.54897 9.54897 6.97391 6.97391 9.54897 9.54897 6.97391 6.97391 9.22708 25.0003 18.562 24.3564 30.1511 24.1418 35.302 12.7679 10.9438 8.69061 10.8365 10.8365 8.69061 8.69061 10.8365 10.8365 10.8365 7.18849 10.8365 10.8365 10.8365 10.8365 10.8365 8.69061 10.8365 10.8365 8.69061 8.69061 10.8365 10.8365 8.69061 10.8365 10.8365 8.69061 8.69061 10.8365 10.8365 8.69061 8.69061 10.8365 10.8365 8.58331 35.302 24.3564 30.1511 0.1 0.1 0.1 0.1 0.1 0.1 0.1 0.1 0.1 0.1 0.1 0.1 0.1 0.1 0.1 0.1 0.1 0.1 0.1 0.1 0.1 0.1 0.1 0.1 0.1 0.1 0.1 0.1 0.1 0.1 0.1 0.1 0.1 0.1 0.1 0.1 0.1 0.1 0.1 0.1 0.1 0.1 0.1 0.1 0.1 0.1 0.1 0.1 0.1 0.1 0.1 0.1 0.1 0.1 0.1 0.1 0.1 0.1 0.1 0.1 0.1 0.1 0.1 0.1 0.1 0.1 0.1 0.1 0.1 0.1 0.1 0.1 0.1 0.1 0.1 0.1 0.1 0.1 0.1 0.1 0.1 0.1 0.1 0.1 0.1 0.1 0.1 0.1 0.1 0.1 0.1 0.1 0.1 0.1 0.1 0.1 0.1 0.1 0.1 0.1 0.1 0.1 0.1 0.1 0.1 0.1 0.1 0.1 0.1 0.1 0.1 0.1 0.1 0.1 0.1 0.1 0.1 0.1 0.1 0.1 0.1 0.1 0.1 0.1 0.1 0.1 0.1 0.1 0.1 0.1 0.1 0.1 0.1 0.1 0.1 0.1 0.1 0.1 0.1 0.1 0.1 0.1 0.1 0.1 0.1 0.1 0.1 0.1 0.1 0.1 0.1 0.1 0.1 0.1 0.1 0.1 0.1 0.1 0.1 0.1 0.1 0.1 0.1 0.1 0.1 0.1 0.1 0.1 0.1 0.1 0.1 0.1 0.1 0.1 0.1 0.1 0.1 0.1 0.1 0.1 0.1 0.1 0.1 0.1 0.1 0.1 0.1 0.1 0.1 0.1 0.1 0.1 0.1 0.1 0.1 0.1 0.1 0.1 0.1 0.1 0.1 0.1 0.1 0.1 0.1 0.1 0.1 0.1 0.1 0.1 0.1 0.1 0.1 0.1 0.1 0.1 0.1 0.1 0.1 0.1 0.1 0.1 0.1 0.1 0.1 0.1 0.1 0.1 0.1 0.1 0.1 0.1 0.1 0.1 0.1 0.1 0.1 0.1 0.1 0.1 0.1 0.1 0.1 0.1 0.1 0.1 0.1 0.1 0.1 0.1 0.1 0.1 0.1 0.1 0.1 0.1 0.1 0.1 0.1 0.1 0.1 0.1 0.1 0.1 0.1 0.1 0.1 0.1 0.1 0.1 0.1 0.1 0.1 0.1 0.1 0.1 0.1 0.1 0.1 0.1 0.1 0.1 0.1 0.1 0.1 0.1 0.1 0.1 0.1 0.1 0.1 0.1 0.1 0.1 0.1 0.1 0.1 0.1 0.1 0.1 0.1 0.1 0.1 0.1 0.1 0.1 0.1 0.1 0.1 0.1 0.1 0.1 0.1 0.1 0.1 0.1 0.1 0.1 0.1 0.1 0.1 0.1 0.1 0.1 0.1 0.1 0.1 0.1 
</DataArray>

<DataArray type="Float32" Name="Density" format="ascii">
1000.03 1000.02 1000.03 1000.01 1000.01 1000.01 1000.01 1000.01 1000.01 1000.01 1000.01 1000.01 1000.01 1000.01 1000.01 1000.01 1000.01 1000.01 1000.01 1000.01 1000.01 1000.01 1000.01 1000.01 1000.01 1000.01 1000.01 1000.01 1000.01 1000.01 1000.01 1000.01 1000.01 1000.01 1000.01 1000.01 1000.01 1000.01 1000.04 1000.03 1000.03 1000.03 1000.02 1000.02 1000 1000.01 1000.01 1000.01 1000.01 1000.01 1000.01 1000.01 1000.01 1000.01 1000.01 1000.01 1000.01 1000.01 1000.01 1000.01 1000.01 1000.01 1000.01 1000.01 1000.01 1000.01 1000.01 1000.01 1000.01 1000.01 1000.01 1000.01 1000.01 1000.01 1000.01 1000.01 1000.01 1000.01 1000.01 1000.03 1000.02 1000.03 1000.03 1000.02 1000.03 1000.01 1000.01 1000 1000.01 1000.01 1000 1000 1000.01 1000.01 1000.01 1000.01 1000.01 1000.01 1000.01 1000.01 1000.01 1000 1000.01 1000.01 1000 1000 1000.01 1000.01 1000 1000.01 1000.01 1000 1000 1000.01 1000.01 1000 1000 1000.01 1000.01 1000 1000.04 1000.03 1000.04 1000.03 1000.02 1000.03 1000 1000 1000 1000 1000 1000 1000 1000 1000 1000 1000.01 1000 1000 1000 1000 1000 1000 1000 1000 1000 1000 1000 1000 1000 1000 1000 1000 1000 1000 1000 1000 1000 1000 1000 1000 1000.01 1000.01 1000.01 1000.01 1000.01 1000.01 1000 1000 1000 1000 1000 1000 1000 1000 1000 1000 1000 1000 1000 1000 1000 1000 1000 1000 1000 1000 1000 1000 1000 1000 1000 1000 1000 1000 1000 1000 1000 1000 1000 1000 1000 1000.01 1000.01 1000.01 1000.01 1000.01 1000 1000 1000 1000 1000 1000 1000 1000 1000 1000 1000 1000 1000 1000 1000 1000 1000 1000 1000 1000 1000 1000 1000 1000 1000 1000 1000 1000 1000 1000 1000 1000 1000 1000 1000 1000 1000 1000.01 1000.01 1000.01 1000.01 1000.01 1000 1000 1000 1000 1000 1000 1000 1000 1000 1000 1000 1000 1000 1000 1000 1000 1000 1000 1000 1000 1000 1000 1000 1000 1000 1000 1000 1000 1000 1000 1000 1000 1000 1000 1000 1000.01 1000.01 1000.01 1000.01 1000.01 1000.01 1000 1000 1000 1000 1000 1000 1000 1000 1000 1000 1000 1000 1000 1000 1000 1000 1000 1000 1000 1000 1000 1000 1000 1000 1000 1000 1000 1000 1000 1000 1000 1000 1000 1000 1000 1000.01 1000.01 1000.01 1000.01 1000.01 1000 1000 1000 1000 1000 1000 1000 1000 1000 1000 1000 1000 1000 1000 1000 1000 1000 1000 1000 1000 1000 1000 1000 1000 1000 1000 1000 1000 1000 1000 1000 1000 1000 1000 1000 1000 1000 1000.01 1000.01 1000.01 1000.01 1000 1000 1000 1000 1000 1000 1000 1000 1000 1000 1000 1000 1000 1000 1000 1000 1000 1000 1000 1000 1000 1000 1000 1000 1000 1000 1000 1000 1000 1000 1000 1000 1000 1000 1000 1000 1000 1000.01 1000.01 1000.01 1000.01 1000.01 1000 1000 1000 1000 1000 1000 1000 1000 1000 1000 1000 1000 1000 1000 1000 1000 1000 1000 1000 1000 1000 1000 1000 1000 1000 1000 1000 1000 1000 1000 1000 1000 1000 1000 1000 1000.01 1000.01 1000.01 1000.01 1000.01 1000.01 1000 1000 1000 1000 1000 1000 1000 1000 1000 1000 1000 1000 1000 1000 1000 1000 1000 1000 1000 1000 1000 1000 1000 1000 1000 1000 1000 1000 1000 1000 1000 1000 1000 1000 1000 1000.01 1000.01 1000.01 1000.01 1000.01 1000.01 1000 1000 1000 1000 1000 1000 1000 1000 1000 1000 1000 1000 1000 1000 1000 1000 1000 1000 1000 1000 1000 1000 1000 1000 1000 1000 1000 1000 1000 1000 1000 1000 1000 1000 1000 1000.01 1000.01 1000.01 1000.01 1000.01 1000.01 1000.01 1000 1000 1000 1000 1000 1000 1000 1000 1000 1000 1000 1000 1000 1000 1000 1000 1000 1000 1000 1000 1000 1000 1000 1000 1000 1000 1000 1000 1000 1000 1000 1000 1000 1000.01 1000.01 1000.01 1000.01 1000.01 1000.01 1000.01 1000 1000 1000 1000 1000 1000 1000 1000 1000 1000 1000 1000 1000 1000 1000 1000 1000 1000 1000 1000 1000 1000 1000 1000 1000 1000 1000 1000 1000 1000 1000 1000 1000 1000 1000 1000.01 1000.01 1000.01 1000.01 1000.01 1000.01 1000 1000 1000 1000 1000 1000 1000 1000 1000 1000 1000 1000 1000 1000 1000 1000 1000 1000 1000 1000 1000 1000 1000 1000 1000 1000 1000 1000 1000 1000 1000 1000 1000 1000 1000 1000.01 1000.01 1000.01 1000.01 1000.01 1000.01 1000 1000 1000 1000 1000 1000 1000 1000 1000 1000 1000 1000 1000 1000 1000 1000 1000 1000 1000 1000 1000 1000 1000 1000 1000 1000 1000 1000 1000 1000 1000 1000 1000 1000 1000 1000.01 1000.01 1000.01 1000.01 1000.01 1000.01 1000 1000 1000 1000 1000 1000 1000 1000 1000 1000 1000 1000 1000 1000 1000 1000 1000 1000 1000 1000 1000 1000 1000 1000 1000 1000 1000 1000 1000 1000 1000 1000 1000 1000 1000 1000.01 1000.01 1000.01 1000.01 1000.01 1000.01 1000 1000 1000 1000 1000 1000 1000 1000 1000 1000 1000 1000 1000 1000 1000 1000 1000 1000 1000 1000 1000 1000 1000 1000 1000 1000 1000 1000 1000 1000 1000 1000 1000 1000 1000 1000.01 1000.01 1000.01 1000.01 1000.01 1000 1000 1000 1000 1000 1000 1000 1000 1000 1000 1000 1000 1000 1000 1000 1000 1000 1000 1000 1000 1000 1000 1000 1000 1000 1000 1000 1000 1000 1000 1000 1000 1000 1000 1000 1000 1000 1000.01 1000.01 1000.01 1000.01 1000.01 1000 1000 1000 1000 1000 1000 1000 1000 1000 1000 1000 1000 1000 1000 1000 1000 1000 1000 1000 1000 1000 1000 1000 1000 1000 1000 1000 1000 1000 1000 1000 1000 1000 1000 1000 1000.01 1000.01 1000.01 1000.01 1000.01 1000.01 1000 1000 1000 1000 1000 1000 1000 1000 1000 1000 1000 1000 1000 1000 1000 1000 1000 1000 1000 1000 1000 1000 1000 1000 1000 1000 1000 1000 1000 1000 1000 1000 1000 1000 1000 1000.01 1000.01 1000.01 1000.01 1000.01 1000 1000 1000 1000 1000 1000 1000 1000 1000 1000 1000 1000 1000 1000 1000 1000 1000 1000 1000 1000 1000 1000 1000 1000 1000 1000 1000 1000 1000 1000 1000 1000 1000 1000 1000 1000 1000 1000.01 1000.01 1000.01 1000.01 1000 1000 1000 1000 1000 1000 1000 1000 1000 1000 1000 1000 1000 1000 1000 1000 1000 1000 1000 1000 1000 1000 1000 1000 1000 1000 1000 1000 1000 1000 1000 1000 1000 1000 1000 1000 1000 1000.01 1000.01 1000.01 1000.01 1000.01 1000 1000 1000 1000 1000 1000 1000 1000 1000 1000 1000 1000 1000 1000 1000 1000 1000 1000 1000 1000 1000 1000 1000 1000 1000 1000 1000 1000 1000 1000 1000 1000 1000 1000 1000 1000.01 1000.01 1000.01 1000.01 1000.01 1000.01 1000 1000 1000 1000 1000 1000 1000 1000 1000 1000 1000 1000 1000 1000 1000 1000 1000 1000 1000 1000 1000 1000 1000 1000 1000 1000 1000 1000 1000 1000 1000 1000 1000 1000 1000 1000.01 1000.01 1000.01 1000.01 1000.01 1000 1000 1000 1000 1000 1000 1000 1000 1000 1000 1000 1000 1000 1000 1000 1000 1000 1000 1000 1000 1000 1000 1000 1000 1000 1000 1000 1000 1000 1000 1000 1000 1000 1000 1000 1000 1000 1000.01 1000.01 1000.01 1000.01 1000.01 1000 1000 1000 1000 1000 1000 1000 1000 1000 1000 1000 1000 1000 1000 1000 1000 1000 1000 1000 1000 1000 1000 1000 1000 1000 1000 1000 1000 1000 1000 1000 1000 1000 1000 1000 1000.01 1000.01 1000.01 1000.01 1000.01 1000.01 1000 1000 1000 1000 1000 1000 1000 1000 1000 1000 1000 1000 1000 1000 1000 1000 1000 1000 1000 1000 1000 1000 1000 1000 1000 1000 1000 1000 1000 1000 1000 1000 1000 1000 1000 1000.01 1000.01 1000.01 1000.01 1000.01 1000 1000 1000 1000 1000 1000 1000 1000 1000 1000 1000 1000 1000 1000 1000 1000 1000 1000 1000 1000 1000 1000 1000 1000 1000 1000 1000 1000 1000 1000 1000 1000 1000 1000 1000 1000 1000 1000.01 1000.01 1000.01 1000.01 1000 1000 1000 1000 1000 1000 1000 1000 1000 1000 1000 1000 1000 1000 1000 1000 1000 1000 1000 1000 1000 1000 1000 1000 1000 1000 1000 1000 1000 1000 1000 1000 1000 1000 1000 1000 1000 1000.01 1000.01 1000.01 1000.01 1000.01 1000 1000 1000 1000 1000 1000 1000 1000 1000 1000 1000 1000 1000 1000 1000 1000 1000 1000 1000 1000 1000 1000 1000 1000 1000 1000 1000 1000 1000 1000 1000 1000 1000 1000 1000 1000.01 1000.01 1000.01 1000.01 1000.01 1000.01 1000 1000 1000 1000 1000 1000 1000 1000 1000 1000 1000 1000 1000 1000 1000 1000 1000 1000 1000 1000 1000 1000 1000 1000 1000 1000 1000 1000 1000 1000 1000 1000 1000 1000 1000 1000.01 1000.01 1000.01 1000.01 1000.01 1000 1000 1000 1000 1000 1000 1000 1000 1000 1000 1000 1000 1000 1000 1000 1000 1000 1000 1000 1000 1000 1000 1000 1000 1000 1000 1000 1000 1000 1000 1000 1000 1000 1000 1000 1000 1000 1000.01 1000.01 1000.01 1000.01 1000 1000 1000 1000 1000 1000 1000 1000 1000 1000 1000 1000 1000 1000 1000 1000 1000 1000 1000 1000 1000 1000 1000 1000 1000 1000 1000 1000 1000 1000 1000 1000 1000 1000 1000 1000 1000 1000.01 1000.01 1000.01 1000.01 1000.01 1000 1000 1000 1000 1000 1000 1000 1000 1000 1000 1000 1000 1000 1000 1000 1000 1000 1000 1000 1000 1000 1000 1000 1000 1000 1000 1000 1000 1000 1000 1000 1000 1000 1000 1000 1000.01 1000.01 1000.01 1000.01 1000.01 1000.01 1000 1000 1000 1000 1000 1000 1000 1000 1000 1000 1000 1000 1000 1000 1000 1000 1000 1000 1000 1000 1000 1000 1000 1000 1000 1000 1000 1000 1000 1000 1000 1000 1000 1000 1000 1000.01 1000.01 1000.01 1000.01 1000.01 1000 1000 1000 1000 1000 1000 1000 1000 1000 1000 1000 1000.01 1000 1000 1000 1000 1000 1000 1000 1000 1000 1000 1000 1000 1000 1000 1000 1000 1000 1000 1000 1000 1000 1000 1000 1000 1000 1000.01 1000.01 1000.04 1000.03 1000.04 1000.01 1000.01 1000 1000.01 1000.01 1000 1000 1000.01 1000.01 1000.01 1000.01 1000.01 1000.01 1000.01 1000.01 1000.01 1000 1000.01 1000.01 1000 1000 1000.01 1000.01 1000 1000.01 1000.01 1000 1000 1000.01 1000.01 1000 1000 1000.01 1000.01 1000 1000.04 1000.03 1000.04 1000.03 1000.02 1000.03 1000.01 1000.01 1000.01 1000.01 1000.01 1000.01 1000.01 1000.01 1000.01 1000.01 1000.01 1000.01 1000.01 1000.01 1000.01 1000.01 1000.01 1000.01 1000.01 1000.01 1000.01 1000.01 1000.01 1000.01 1000.01 1000.01 1000.01 1000.01 1000.01 1000.01 1000.01 1000.01 1000.01 1000.01 1000.01 1000.03 1000.02 1000.03 1000.03 1000.03 1000.04 1000.01 1000.01 1000.01 1000.01 1000.01 1000.01 1000.01 1000.01 1000.01 1000.01 1000.01 1000.01 1000.01 1000.01 1000.01 1000.01 1000.01 1000.01 1000.01 1000.01 1000.01 1000.01 1000.01 1000.01 1000.01 1000.01 1000.01 1000.01 1000.01 1000.01 1000.01 1000.01 1000.01 1000.01 1000.01 1000.04 1000.03 1000.03 1000 1000 1000 1000 1000 1000 1000 1000 1000 1000 1000 1000 1000 1000 1000 1000 1000 1000 1000 1000 1000 1000 1000 1000 1000 1000 1000 1000 1000 1000 1000 1000 1000 1000 1000 1000 1000 1000 1000 1000 1000 1000 1000 1000 1000 1000 1000 1000 1000 1000 1000 1000 1000 1000 1000 1000 1000 1000 1000 1000 1000 1000 1000 1000 1000 1000 1000 1000 1000 1000 1000 1000 1000 1000 1000 1000 1000 1000 1000 1000 1000 1000 1000 1000 1000 1000 1000 1000 1000 1000 1000 1000 1000 1000 1000 1000 1000 1000 1000 1000 1000 1000 1000 1000 1000 1000 1000 1000 1000 1000 1000 1000 1000 1000 1000 1000 1000 1000 1000 1000 1000 1000 1000 1000 1000 1000 1000 1000 1000 1000 1000 1000 1000 1000 1000 1000 1000 1000 1000 1000 1000 1000 1000 1000 1000 1000 1000 1000 1000 1000 1000 1000 1000 1000 1000 1000 1000 1000 1000 1000 1000 1000 1000 1000 1000 1000 1000 1000 1000 1000 1000 1000 1000 1000 1000 1000 1000 1000 1000 1000 1000 1000 1000 1000 1000 1000 1000 1000 1000 1000 1000 1000 1000 1000 1000 1000 1000 1000 1000 1000 1000 1000 1000 1000 1000 1000 1000 1000 1000 1000 1000 1000 1000 1000 1000 1000 1000 1000 1000 1000 1000 1000 1000 1000 1000 1000 1000 1000 1000 1000 1000 1000 1000 1000 1000 1000 1000 1000 1000 1000 1000 1000 1000 1000 1000 1000 1000 1000 1000 1000 1000 1000 1000 1000 1000 1000 1000 1000 1000 1000 1000 1000 1000 1000 1000 1000 1000 1000 1000 1000 1000 1000 1000 1000 1000 1000 1000 1000 1000 1000 1000 1000 1000 1000 1000 1000 1000 1000 1000 1000 1000 1000 1000 1000 1000 1000 1000 1000 1000 1000 1000 1000 1000 1000 1000 1000 1000 1000 1000 1000 1000 1000 1000 1000 1000 1000 1000 1000 1000 1000 1000 1000 1000 1000 1000 1000 1000 1000 
</DataArray>
<DataArray type="Float32" Name="Velocity" NumberOfComponents="3" format="ascii">
0.0041717244 0.0061765909 0
0.00086504489 0.0058945529 0
-3.2660679e-05 0.0058343722 0
2.9700001e-05 0.0049855099 0
3.5427288e-06 0.0041670832 0
-1.7330763e-09 0.0029358936 0
1.0347529e-06 0.0041802358 0
7.4724193e-07 0.0041802321 0
2.7267149e-08 0.0029388126 0
-6.9622135e-09 0.0029388641 0
4.3741542e-07 0.0041802316 0
-1.0697306e-06 0.0041802335 0
1.5513724e-07 0.0041802302 0
5.9865325e-12 0.0051532639 0
4.2424438e-07 0.0041802325 0
1.4570503e-07 0.0041802335 0
-1.753051e-10 0.0041802335 0
8.0407813e-07 0.0041802335 0
-3.1562752e-08 0.0041802265 0
-1.8719552e-10 0.0029358941 0
5.9055259e-07 0.0041802325 0
1.209177e-07 0.0041802353 0
3.1935482e-08 0.0029388301 0
-3.1935482e-08 0.0029388301 0
3.3517685e-07 0.0041802321 0
-6.4766505e-07 0.0041802325 0
0 0.0029358941 0
6.4766505e-07 0.0041802325 0
-3.3517685e-07 0.0041802321 0
3.1935482e-08 0.0029388301 0
-3.1935482e-08 0.0029388301 0
3.3517685e-07 0.0041802321 0
-3.3517685e-07 0.0041802321 0
3.1935482e-08 0.0029388301 0
-3.1400841e-08 0.0029388301 0
-5.4066368e-07 0.0041802297 0
-2.5469744e-06 0.0041802367 0
-6.608594e-06 0.0029653618 0
-0.00068078184 0.0040319604 0
-0.0008140172 0.0038870205 0
-0.0043627042 0.0043343827 0
0.0039533782 0.0012184209 0
0.0011514303 0.0013084799 0
0.00037087634 0.0012441789 0
1.9817466e-05 0.0012243279 0
1.9075718e-05 0.0012371084 0
-3.6679393e-09 0.00087933906 0
-1.1381926e-07 0.0012384049 0
1.0732985e-07 0.0012384048 0
-4.8847471e-07 0.0010453667 0
2.0428372e-07 0.0010454749 0
-2.0512219e-07 0.0012384048 0
-3.9447926e-07 0.0012384045 0
1.5456132e-07 0.0012384035 0
3.659241e-11 0.0014836537 0
-4.7429859e-07 0.0012384036 0
6.2879899e-08 0.0012384045 0
-2.5597132e-07 0.0012384045 0
4.4876651e-07 0.0012384059 0
1.8917525e-07 0.0012384048 0
-2.5157493e-10 0.0008793415 0
-4.2841941e-07 0.0012384044 0
4.2435374e-07 0.0012384044 0
-6.2446111e-07 0.0010454016 0
6.2446111e-07 0.0010454016 0
-4.2654429e-07 0.0012384044 0
4.2654429e-07 0.0012384044 0
6.1845636e-15 0.0008793415 0
-4.2654429e-07 0.0012384044 0
4.2654429e-07 0.0012384044 0
-6.2446111e-07 0.0010454016 0
6.2446111e-07 0.0010454016 0
-4.2654429e-07 0.0012384044 0
4.2654429e-07 0.0012384044 0
-6.2446111e-07 0.0010454016 0
6.2493717e-07 0.0010454016 0
-4.2140101e-07 0.0012384045 0
4.3184491e-07 0.0012384045 0
-3.8458791e-05 0.0010643866 0
-0.0005405324 0.00097187445 0
-0.0010173642 0.0010145203 0
-0.0038892068 0.00077653246 0
0.0038133794 0.00021615397 0
0.0010935067 0.00030552567 0
0.00054280413 0.00013335361 0
2.2794791e-05 0.00011680707 0
1.1145671e-05 0.00014025027 0
3.1039601e-06 3.1762553e-05 0
1.1466856e-06 0.00013913708 0
1.1024292e-06 0.00013911717 0
2.411395e-07 3.2587221e-05 0
6.7093578e-07 3.2612261e-05 0
-2.4707819e-07 0.00013910564 0
-5.0444254e-07 0.00013910497 0
3.4729329e-08 0.00013909994 0
-8.8536416e-07 0.00012892962 0
-8.5827345e-08 0.00013909998 0
-3.8159848e-07 0.00013910497 0
-2.162611e-07 0.00013910497 0
4.3087238e-07 0.00013910499 0
1.8384551e-07 0.0001391074 0
3.303422e-07 3.1846394e-05 0
5.4282015e-08 0.00013910476 0
3.8647647e-07 0.0001391054 0
-8.666741e-07 3.2603479e-05 0
8.666741e-07 3.2603479e-05 0
5.9003902e-08 0.00013910534 0
-2.4601388e-07 0.00013910563 0
-1.9718671e-15 3.1845255e-05 0
2.4601388e-07 0.00013910563 0
-5.9003902e-08 0.00013910534 0
-8.666741e-07 3.2603479e-05 0
8.666741e-07 3.2603479e-05 0
5.9003902e-08 0.00013910534 0
-5.9003902e-08 0.00013910534 0
-8.6810854e-07 3.2603479e-05 0
-1.6175694e-06 3.2582408e-05 0
-2.2147185e-06 0.00013912669 0
-2.5414306e-06 0.00013916533 0
-4.8625105e-05 3.3039076e-05 0
-0.00044841188 0.00045082351 0
-0.0009461575 0.00050420308 0
-0.0039501982 0.00053857133 0
0.0042099683 0.00035624701 0
0.0010854587 0.00030556472 0
0.00039261943 0.00015394972 0
2.5457415e-05 2.7742226e-05 0
7.1637294e-07 9.4138177e-06 0
7.8938562e-09 6.5716557e-07 0
-3.5942971e-08 1.0100181e-05 0
3.5004621e-08 1.0100158e-05 0
-3.5894718e-11 6.5809866e-07 0
4.8743284e-11 6.5813521e-07 0
-3.515197e-08 1.0100151e-05 0
4.6449125e-09 1.0100149e-05 0
-1.147599e-07 1.0100039e-05 0
2.4511836e-12 5.2705072e-05 0
1.1524916e-07 1.0100039e-05 0
-4.4452562e-09 1.0100149e-05 0
3.5422474e-08 1.0100149e-05 0
-3.5659582e-08 1.0100149e-05 0
3.4879633e-08 1.0100153e-05 0
-9.5966325e-12 6.5722776e-07 0
-3.5735876e-08 1.0100157e-05 0
3.5151469e-08 1.0100149e-05 0
-3.9125706e-11 6.5811389e-07 0
3.9125706e-11 6.5811389e-07 0
-3.546748e-08 1.0100149e-05 0
3.546748e-08 1.0100151e-05 0
0 6.5723549e-07 0
-3.546748e-08 1.0100151e-05 0
3.546748e-08 1.0100149e-05 0
-3.9125706e-11 6.5811389e-07 0
3.9125706e-11 6.5811389e-07 0
-3.546748e-08 1.0100149e-05 0
3.546748e-08 1.0100149e-05 0
-3.9125706e-11 6.5811389e-07 0
7.1750085e-11 6.5809797e-07 0
-3.472233e-08 1.0100164e-05 0
-5.6495519e-09 1.0100216e-05 0
-1.0489111e-05 8.5728033e-07 0
-0.00014102644 5.4170094e-05 0
-0.0012352404 5.1117881e-05 0
-0.0041826237 7.1803064e-05 0
0.0041667782 8.1936523e-05 0
0.0012315604 6.5167507e-05 0
0.00014245375 4.917261e-05 0
9.8557703e-06 7.1198235e-07 0
2.3265006e-08 2.3161032e-08 0
0 5.1392974e-09 0
-4.7746509e-09 3.113772e-08 0
4.7746509e-09 3.1137709e-08 0
0 5.1400684e-09 0
0 5.140119e-09 0
-4.7746509e-09 3.1137706e-08 0
4.7746509e-09 3.1137695e-08 0
-4.774273e-09 3.1137517e-08 0
0 1.7560183e-06 0
4.7741673e-09 3.1137517e-08 0
-4.7746509e-09 3.1137695e-08 0
4.7746509e-09 3.1137695e-08 0
-4.7746509e-09 3.1137695e-08 0
4.7746509e-09 3.1137709e-08 0
0 5.1393312e-09 0
-4.7746562e-09 3.1137709e-08 0
4.7746562e-09 3.1137702e-08 0
0 5.1400875e-09 0
0 5.1400875e-09 0
-4.7746562e-09 3.1137702e-08 0
4.7746562e-09 3.1137706e-08 0
0 5.1393414e-09 0
-4.7746562e-09 3.1137706e-08 0
4.7746562e-09 3.1137702e-08 0
0 5.1400875e-09 0
0 5.1400875e-09 0
-4.7746562e-09 3.1137702e-08 0
4.7746562e-09 3.1137702e-08 0
0 5.1400875e-09 0
0 5.1400821e-09 0
-4.7748725e-09 3.1137709e-08 0
-1.3556162e-08 3.1137738e-08 0
-9.4109319e-06 1.9814276e-08 0
-0.0001401044 8.6843365e-06 0
-0.0012370788 3.0045221e-05 0
-0.0041671689 3.1712192e-05 0
0.002939096 -5.9206052e-08 0
0.0010525943 8.7056259e-07 0
3.2646371e-05 5.0812309e-06 0
6.5818523e-07 7.8960323e-09 0
5.1401563e-09 0 0
0 0 0
-4.7746509e-09 0 0
4.7746509e-09 0 0
0 0 0
0 0 0
-4.7746509e-09 0 0
4.7746509e-09 0 0
-4.7746509e-09 0 0
0 1.2165509e-09 0
4.7746509e-09 0 0
-4.7746509e-09 0 0
4.7746509e-09 0 0
-4.7746509e-09 0 0
4.7746509e-09 0 0
0 0 0
-4.7746562e-09 0 0
4.7746562e-09 0 0
0 0 0
0 0 0
-4.7746562e-09 0 0
4.7746562e-09 0 0
0 0 0
-4.7746562e-09 0 0
4.7746562e-09 0 0
0 0 0
0 0 0
-4.7746562e-09 0 0
4.7746562e-09 0 0
0 0 0
0 0 0
-4.7746562e-09 0 0
4.5456532e-09 0 0
-6.6266529e-07 -9.7013605e-11 0
-3.2526328e-05 4.129301e-06 0
-0.0010453489 2.8801256e-07 0
-0.0029388538 -2.1037952e-08 0
0.0041802353 1.0332174e-06 0
0.0012384049 -1.1382127e-07 0
0.00013914669 1.01794e-06 0
1.0100183e-05 -3.5944041e-08 0
3.113772e-08 -4.7746509e-09 0
0 -4.7746509e-09 0
-4.7746509e-09 -4.7746509e-09 0
4.7746509e-09 -4.7746509e-09 0
0 -4.7746509e-09 0
0 -4.7746509e-09 0
-4.7746509e-09 -4.7746509e-09 0
4.7746509e-09 -4.7746509e-09 0
-4.7746509e-09 -4.7746509e-09 0
0 -4.7746509e-09 0
4.7746509e-09 -4.7746509e-09 0
-4.7746509e-09 -4.7746509e-09 0
4.7746509e-09 -4.7746509e-09 0
-4.7746509e-09 -4.7746509e-09 0
4.7746509e-09 -4.7746509e-09 0
0 -4.7746509e-09 0
-4.7746562e-09 -4.7746509e-09 0
4.7746562e-09 -4.7746509e-09 0
0 -4.7746509e-09 0
0 -4.7746509e-09 0
-4.7746562e-09 -4.7746509e-09 0
4.7746562e-09 -4.7746509e-09 0
0 -4.7746509e-09 0
-4.7746562e-09 -4.7746509e-09 0
4.7746562e-09 -4.7746509e-09 0
0 -4.7746509e-09 0
0 -4.7746509e-09 0
-4.7746562e-09 -4.7746509e-09 0
4.7746562e-09 -4.7746509e-09 0
0 -4.7746509e-09 0
0 -4.7746509e-09 0
-4.7754432e-09 -4.7746509e-09 0
-2.1526501e-08 -4.7746509e-09 0
-1.0104832e-05 -3.5934519e-08 0
-0.00013914297 1.5208145e-06 0
-0.0012383772 -1.137526e-07 0
-0.0041802297 1.0371557e-06 0
0.0041802321 7.4492777e-07 0
0.0012384048 1.0725469e-07 0
0.00013911685 2.0962186e-06 0
1.0100158e-05 3.4993562e-08 0
3.1137709e-08 4.7746509e-09 0
0 4.7746509e-09 0
-4.7746509e-09 4.7746509e-09 0
4.7746509e-09 4.7746509e-09 0
0 4.7746509e-09 0
0 4.7746509e-09 0
-4.7746509e-09 4.7746509e-09 0
4.7746509e-09 4.7746509e-09 0
-4.7746509e-09 4.7746509e-09 0
0 4.7746509e-09 0
4.7746509e-09 4.7746509e-09 0
-4.7746509e-09 4.7746509e-09 0
4.7746509e-09 4.7746509e-09 0
-4.7746509e-09 4.7746509e-09 0
4.7746509e-09 4.7746509e-09 0
0 4.7746509e-09 0
-4.7746562e-09 4.7746509e-09 0
4.7746562e-09 4.7746509e-09 0
0 4.7746509e-09 0
0 4.7746509e-09 0
-4.7746562e-09 4.7746509e-09 0
4.7746562e-09 4.7746509e-09 0
0 4.7746509e-09 0
-4.7746562e-09 4.7746509e-09 0
4.7746562e-09 4.7746509e-09 0
0 4.7746509e-09 0
0 4.7746509e-09 0
-4.7746562e-09 4.7746509e-09 0
4.7746562e-09 4.7746509e-09 0
0 4.7746509e-09 0
0 4.7746509e-09 0
-4.7754432e-09 4.7746509e-09 0
-2.1526485e-08 4.7746509e-09 0
-1.0104809e-05 3.5020378e-08 0
-0.00013911433 1.4597503e-06 0
-0.0012383771 1.0743636e-07 0
-0.0041802265 7.5099115e-07 0
0.0029388126 2.7261297e-08 0
0.0010453667 -4.8847971e-07 0
3.2587493e-05 2.2831517e-07 0
6.5809849e-07 -3.6263791e-11 0
5.1400684e-09 0 0
0 0 0
-4.7746509e-09 0 0
4.7746509e-09 0 0
0 0 0
0 0 0
-4.7746509e-09 0 0
4.7746509e-09 0 0
-4.7746509e-09 0 0
0 0 0
4.7746509e-09 0 0
-4.7746509e-09 0 0
4.7746509e-09 0 0
-4.7746509e-09 0 0
4.7746509e-09 0 0
0 0 0
-4.7746562e-09 0 0
4.7746562e-09 0 0
0 0 0
0 0 0
-4.7746562e-09 0 0
4.7746562e-09 0 0
0 0 0
-4.7746562e-09 0 0
4.7746562e-09 0 0
0 0 0
0 0 0
-4.7746562e-09 0 0
4.7746562e-09 0 0
0 0 0
0 0 0
-4.7746562e-09 0 0
4.545631e-09 0 0
-6.6271929e-07 -3.2992161e-11 0
-3.2590229e-05 1.8164187e-08 0
-0.0010453501 -4.883932e-07 0
-0.0029388575 2.7323477e-08 0
0.0029388641 -6.9622135e-09 0
0.0010454749 2.0428374e-07 0
3.2612261e-05 6.7093646e-07 0
6.5813521e-07 4.8743284e-11 0
5.140119e-09 0 0
0 0 0
-4.7746509e-09 0 0
4.7746509e-09 0 0
0 0 0
0 0 0
-4.7746509e-09 0 0
4.7746509e-09 0 0
-4.7746509e-09 0 0
0 0 0
4.7746509e-09 0 0
-4.7746509e-09 0 0
4.7746509e-09 0 0
-4.7746509e-09 0 0
4.7746509e-09 0 0
0 0 0
-4.7746562e-09 0 0
4.7746562e-09 0 0
0 0 0
0 0 0
-4.7746562e-09 0 0
4.7746562e-09 0 0
0 0 0
-4.7746562e-09 0 0
4.7746562e-09 0 0
0 0 0
0 0 0
-4.7746562e-09 0 0
4.7746562e-09 0 0
0 0 0
0 0 0
-4.7746562e-09 0 0
4.5456163e-09 0 0
-6.6275425e-07 4.8741719e-11 0
-3.2612756e-05 6.7090173e-07 0