<?xml version="1.0" ?>

<VTKFile type="UnstructuredGrid" version="0.1" byte_order="BigEndian">

<UnstructuredGrid>

<Piece NumberOfPoints= " 24 " NumberOfCells=" 24 ">

<PointData Vectors="Velocity">

<DataArray type="Float32" Name="Velocity" NumberOfComponents="3" format="ascii">
0.00125 0.0012449693 0
0.00125 0.0012449693 0
0.00125 0.0012449693 0
0.00125 0.0012449693 0
0.00125 0.0012449693 0
0.00125 0.0012449693 0
0.00125 0.0012449693 0
0.00125 0.0012449693 0
0.00125 0.0012449693 0
0.00125 0.0012449693 0
0.00125 0.0012449693 0
0.00125 0.0012449693 0
0.00125 0.0012449693 0
0.00125 0.0012449693 0
0.00125 0.0012449693 0
0.00125 0.0012449693 0
0.00125 0.0012449693 0
0.00125 0.0012449693 0
0.00125 0.0012449693 0
0.00125 0.0012449693 0
0.00125 0.0012449693 0
0.00125 0.0012449693 0
0.00125 0.0012449693 0
0.00125 0.0012449693 0

</DataArray>
</PointData>
<Points>
<DataArray type= "Float32" Name="Position"  NumberOfComponents= "3" format="ascii">
-1.2375e-05 -8.7375505e-05 0
1.2499913e-07 -8.7375505e-05 0
1.2624999e-05 -8.7375505e-05 0
2.5124999e-05 -8.7375505e-05 0
3.7625003e-05 -8.7375505e-05 0
5.0124996e-05 -8.7375505e-05 0
6.2625004e-05 -8.7375505e-05 0
6.2625004e-05 -7.4875512e-05 0
6.2625004e-05 -6.2375504e-05 0
6.2625004e-05 -4.9875503e-05 0
6.2625004e-05 -3.7375507e-05 0
6.2625004e-05 -2.4875504e-05 0
6.2625004e-05 -1.2375505e-05 0
5.0124996e-05 -1.2375505e-05 0
3.7625003e-05 -1.2375505e-05 0
2.5124999e-05 -1.2375505e-05 0
1.2624999e-05 -1.2375505e-05 0
1.2499913e-07 -1.2375505e-05 0
-1.2375e-05 -1.2375505e-05 0
-1.2375e-05 -2.4875504e-05 0
-1.2375e-05 -3.7375507e-05 0
-1.2375e-05 -4.9875503e-05 0
-1.2375e-05 -6.2375504e-05 0
-1.2375e-05 -7.4875512e-05 0

</DataArray>
</Points>
<Cells>
<DataArray type="Int32" Name="connectivity" format="ascii">
0 1 2 3 4 5 6 7 8 9 10 11 12 13 14 15 16 17 18 19 20 21 22 23 
</DataArray>

<DataArray type="Int32" Name="offsets" format="ascii">
1 2 3 4 5 6 7 8 9 10 11 12 13 14 15 16 17 18 19 20 21 22 23 24 
</DataArray>

<DataArray type="Int32" Name="types" format="ascii">
1 1 1 1 1 1 1 1 1 1 1 1 1 1 1 1 1 1 1 1 1 1 1 1 
</DataArray>
</Cells>
</Piece>
</UnstructuredGrid>
</VTKFile>