<?xml version="1.0" ?>

<VTKFile type="UnstructuredGrid" version="0.1" byte_order="BigEndian">

<UnstructuredGrid>

<Piece NumberOfPoints= " 24 " NumberOfCells=" 24 ">

<PointData Vectors="Velocity">

<DataArray type="Float32" Name="Velocity" NumberOfComponents="3" format="ascii">
0.0015329373 -0.025235347 0
0.0015329379 -0.025235347 0
0.0015329384 -0.025235347 0
0.001532939 -0.025235347 0
0.0015329396 -0.025235347 0
0.0015329402 -0.025235347 0
0.0015329408 -0.025235347 0
0.0015329408 -0.025235347 0
0.0015329408 -0.025235346 0
0.0015329408 -0.025235346 0
0.0015329408 -0.025235346 0
0.0015329408 -0.025235344 0
0.0015329408 -0.025235344 0
0.0015329402 -0.025235344 0
0.0015329396 -0.025235344 0
0.001532939 -0.025235344 0
0.0015329384 -0.025235344 0
0.0015329379 -0.025235344 0
0.0015329373 -0.025235344 0
0.0015329373 -0.025235344 0
0.0015329373 -0.025235346 0
0.0015329373 -0.025235346 0
0.0015329373 -0.025235346 0
0.0015329373 -0.025235347 0

</DataArray>
</PointData>
<Points>
<DataArray type= "Float32" Name="Position"  NumberOfComponents= "3" format="ascii">
-5.5565761e-07 -0.00017493013 0
1.1944341e-05 -0.00017493013 0
2.4444342e-05 -0.00017493013 0
3.6944341e-05 -0.00017493013 0
4.944433e-05 -0.00017493013 0
6.1944302e-05 -0.00017493013 0
7.4444339e-05 -0.00017493013 0
7.4444339e-05 -0.00016243015 0
7.4444339e-05 -0.00014993017 0
7.4444339e-05 -0.00013743016 0
7.4444339e-05 -0.00012493017 0
7.4444339e-05 -0.00011243016 0
7.4444339e-05 -9.993017e-05 0
6.1944302e-05 -9.993017e-05 0
4.944433e-05 -9.993017e-05 0
3.6944341e-05 -9.993017e-05 0
2.4444342e-05 -9.993017e-05 0
1.1944341e-05 -9.993017e-05 0
-5.5565761e-07 -9.993017e-05 0
-5.5565761e-07 -0.00011243016 0
-5.5565761e-07 -0.00012493017 0
-5.5565761e-07 -0.00013743016 0
-5.5565761e-07 -0.00014993017 0
-5.5565761e-07 -0.00016243015 0

</DataArray>
</Points>
<Cells>
<DataArray type="Int32" Name="connectivity" format="ascii">
0 1 2 3 4 5 6 7 8 9 10 11 12 13 14 15 16 17 18 19 20 21 22 23 
</DataArray>

<DataArray type="Int32" Name="offsets" format="ascii">
1 2 3 4 5 6 7 8 9 10 11 12 13 14 15 16 17 18 19 20 21 22 23 24 
</DataArray>

<DataArray type="Int32" Name="types" format="ascii">
1 1 1 1 1 1 1 1 1 1 1 1 1 1 1 1 1 1 1 1 1 1 1 1 
</DataArray>
</Cells>
</Piece>
</UnstructuredGrid>
</VTKFile>