<?xml version="1.0" ?>

<VTKFile type="UnstructuredGrid" version="0.1" byte_order="BigEndian">

<UnstructuredGrid>

<Piece NumberOfPoints= " 24 " NumberOfCells=" 24 ">

<PointData Vectors="Velocity">

<DataArray type="Float32" Name="Velocity" NumberOfComponents="3" format="ascii">
0.0012942074 -0.010393104 0
0.0012942078 -0.010393104 0
0.0012942081 -0.010393104 0
0.0012942085 -0.010393104 0
0.0012942088 -0.010393104 0
0.0012942092 -0.010393104 0
0.0012942095 -0.010393104 0
0.0012942095 -0.010393104 0
0.0012942095 -0.010393103 0
0.0012942095 -0.010393103 0
0.0012942095 -0.010393103 0
0.0012942095 -0.010393102 0
0.0012942095 -0.010393102 0
0.0012942092 -0.010393102 0
0.0012942088 -0.010393102 0
0.0012942085 -0.010393102 0
0.0012942081 -0.010393102 0
0.0012942078 -0.010393102 0
0.0012942074 -0.010393102 0
0.0012942074 -0.010393102 0
0.0012942074 -0.010393103 0
0.0012942074 -0.010393103 0
0.0012942074 -0.010393103 0
0.0012942074 -0.010393104 0

</DataArray>
</PointData>
<Points>
<DataArray type= "Float32" Name="Position"  NumberOfComponents= "3" format="ascii">
-6.2218896e-06 -0.00010293757 0
6.2781091e-06 -0.00010293757 0
1.877811e-05 -0.00010293757 0
3.1278109e-05 -0.00010293757 0
4.3778098e-05 -0.00010293757 0
5.6278092e-05 -0.00010293757 0
6.8778114e-05 -0.00010293757 0
6.8778114e-05 -9.0437577e-05 0
6.8778114e-05 -7.793757e-05 0
6.8778114e-05 -6.543754e-05 0
6.8778114e-05 -5.2937543e-05 0
6.8778114e-05 -4.0437539e-05 0
6.8778114e-05 -2.7937542e-05 0
5.6278092e-05 -2.7937542e-05 0
4.3778098e-05 -2.7937542e-05 0
3.1278109e-05 -2.7937542e-05 0
1.877811e-05 -2.7937542e-05 0
6.2781091e-06 -2.7937542e-05 0
-6.2218896e-06 -2.7937542e-05 0
-6.2218896e-06 -4.0437539e-05 0
-6.2218896e-06 -5.2937543e-05 0
-6.2218896e-06 -6.543754e-05 0
-6.2218896e-06 -7.793757e-05 0
-6.2218896e-06 -9.0437577e-05 0

</DataArray>
</Points>
<Cells>
<DataArray type="Int32" Name="connectivity" format="ascii">
0 1 2 3 4 5 6 7 8 9 10 11 12 13 14 15 16 17 18 19 20 21 22 23 
</DataArray>

<DataArray type="Int32" Name="offsets" format="ascii">
1 2 3 4 5 6 7 8 9 10 11 12 13 14 15 16 17 18 19 20 21 22 23 24 
</DataArray>

<DataArray type="Int32" Name="types" format="ascii">
1 1 1 1 1 1 1 1 1 1 1 1 1 1 1 1 1 1 1 1 1 1 1 1 
</DataArray>
</Cells>
</Piece>
</UnstructuredGrid>
</VTKFile>