<?xml version="1.0" ?>

<VTKFile type="UnstructuredGrid" version="0.1" byte_order="BigEndian">

<UnstructuredGrid>

<Piece NumberOfPoints= " 24 " NumberOfCells=" 24 ">

<PointData Vectors="Velocity">

<DataArray type="Float32" Name="Velocity" NumberOfComponents="3" format="ascii">
0.0014135723 -0.01781252 0
0.0014135728 -0.01781252 0
0.0014135733 -0.01781252 0
0.0014135737 -0.01781252 0
0.0014135742 -0.01781252 0
0.0014135747 -0.01781252 0
0.0014135751 -0.01781252 0
0.0014135751 -0.017812518 0
0.0014135751 -0.017812518 0
0.0014135751 -0.017812518 0
0.0014135751 -0.017812518 0
0.0014135751 -0.017812518 0
0.0014135751 -0.017812517 0
0.0014135747 -0.017812517 0
0.0014135742 -0.017812517 0
0.0014135737 -0.017812517 0
0.0014135733 -0.017812517 0
0.0014135728 -0.017812517 0
0.0014135723 -0.017812517 0
0.0014135723 -0.017812518 0
0.0014135723 -0.017812518 0
0.0014135723 -0.017812518 0
0.0014135723 -0.017812518 0
0.0014135723 -0.017812518 0

</DataArray>
</PointData>
<Points>
<DataArray type= "Float32" Name="Position"  NumberOfComponents= "3" format="ascii">
-3.5081393e-06 -0.00013151116 0
8.9918594e-06 -0.00013151116 0
2.149186e-05 -0.00013151116 0
3.3991859e-05 -0.00013151116 0
4.6491848e-05 -0.00013151116 0
5.8991842e-05 -0.00013151116 0
7.1491901e-05 -0.00013151116 0
7.1491901e-05 -0.00011901118 0
7.1491901e-05 -0.00010651117 0
7.1491901e-05 -9.4011142e-05 0
7.1491901e-05 -8.1511142e-05 0
7.1491901e-05 -6.9011141e-05 0
7.1491901e-05 -5.6511144e-05 0
5.8991842e-05 -5.6511144e-05 0
4.6491848e-05 -5.6511144e-05 0
3.3991859e-05 -5.6511144e-05 0
2.149186e-05 -5.6511144e-05 0
8.9918594e-06 -5.6511144e-05 0
-3.5081393e-06 -5.6511144e-05 0
-3.5081393e-06 -6.9011141e-05 0
-3.5081393e-06 -8.1511142e-05 0
-3.5081393e-06 -9.4011142e-05 0
-3.5081393e-06 -0.00010651117 0
-3.5081393e-06 -0.00011901118 0

</DataArray>
</Points>
<Cells>
<DataArray type="Int32" Name="connectivity" format="ascii">
0 1 2 3 4 5 6 7 8 9 10 11 12 13 14 15 16 17 18 19 20 21 22 23 
</DataArray>

<DataArray type="Int32" Name="offsets" format="ascii">
1 2 3 4 5 6 7 8 9 10 11 12 13 14 15 16 17 18 19 20 21 22 23 24 
</DataArray>

<DataArray type="Int32" Name="types" format="ascii">
1 1 1 1 1 1 1 1 1 1 1 1 1 1 1 1 1 1 1 1 1 1 1 1 
</DataArray>
</Cells>
</Piece>
</UnstructuredGrid>
</VTKFile>