<?xml version="1.0" ?>

<VTKFile type="UnstructuredGrid" version="0.1" byte_order="BigEndian">

<UnstructuredGrid>

<Piece NumberOfPoints= " 24 " NumberOfCells=" 24 ">

<PointData Vectors="Velocity">

<DataArray type="Float32" Name="Velocity" NumberOfComponents="3" format="ascii">
0.001234525 -0.0067856498 0
0.0012345252 -0.0067856498 0
0.0012345256 -0.0067856498 0
0.0012345258 -0.0067856498 0
0.001234526 -0.0067856498 0
0.0012345264 -0.0067856498 0
0.0012345266 -0.0067856498 0
0.0012345266 -0.0067856493 0
0.0012345266 -0.0067856493 0
0.0012345266 -0.0067856489 0
0.0012345266 -0.0067856484 0
0.0012345266 -0.0067856484 0
0.0012345266 -0.0067856479 0
0.0012345264 -0.0067856479 0
0.001234526 -0.0067856479 0
0.0012345258 -0.0067856479 0
0.0012345256 -0.0067856479 0
0.0012345252 -0.0067856479 0
0.001234525 -0.0067856479 0
0.001234525 -0.0067856484 0
0.001234525 -0.0067856484 0
0.001234525 -0.0067856489 0
0.001234525 -0.0067856493 0
0.001234525 -0.0067856493 0

</DataArray>
</PointData>
<Points>
<DataArray type= "Float32" Name="Position"  NumberOfComponents= "3" format="ascii">
-7.489245e-06 -9.4184841e-05 0
5.0107537e-06 -9.4184841e-05 0
1.7510754e-05 -9.4184841e-05 0
3.0010753e-05 -9.4184841e-05 0
4.251075e-05 -9.4184841e-05 0
5.5010743e-05 -9.4184841e-05 0
6.7510744e-05 -9.4184841e-05 0
6.7510744e-05 -8.1684848e-05 0
6.7510744e-05 -6.918484e-05 0
6.7510744e-05 -5.6684818e-05 0
6.7510744e-05 -4.4184821e-05 0
6.7510744e-05 -3.1684816e-05 0
6.7510744e-05 -1.9184819e-05 0
5.5010743e-05 -1.9184819e-05 0
4.251075e-05 -1.9184819e-05 0
3.0010753e-05 -1.9184819e-05 0
1.7510754e-05 -1.9184819e-05 0
5.0107537e-06 -1.9184819e-05 0
-7.489245e-06 -1.9184819e-05 0
-7.489245e-06 -3.1684816e-05 0
-7.489245e-06 -4.4184821e-05 0
-7.489245e-06 -5.6684818e-05 0
-7.489245e-06 -6.918484e-05 0
-7.489245e-06 -8.1684848e-05 0

</DataArray>
</Points>
<Cells>
<DataArray type="Int32" Name="connectivity" format="ascii">
0 1 2 3 4 5 6 7 8 9 10 11 12 13 14 15 16 17 18 19 20 21 22 23 
</DataArray>

<DataArray type="Int32" Name="offsets" format="ascii">
1 2 3 4 5 6 7 8 9 10 11 12 13 14 15 16 17 18 19 20 21 22 23 24 
</DataArray>

<DataArray type="Int32" Name="types" format="ascii">
1 1 1 1 1 1 1 1 1 1 1 1 1 1 1 1 1 1 1 1 1 1 1 1 
</DataArray>
</Cells>
</Piece>
</UnstructuredGrid>
</VTKFile>