<?xml version="1.0" ?>

<VTKFile type="UnstructuredGrid" version="0.1" byte_order="BigEndian">

<UnstructuredGrid>

<Piece NumberOfPoints= " 24 " NumberOfCells=" 24 ">

<PointData Vectors="Velocity">

<DataArray type="Float32" Name="Velocity" NumberOfComponents="3" format="ascii">
0.0011912982 -0.0035449532 0
0.0011912985 -0.0035449532 0
0.0011912986 -0.0035449532 0
0.0011912988 -0.0035449532 0
0.0011912991 -0.0035449532 0
0.0011912992 -0.0035449532 0
0.0011912994 -0.0035449532 0
0.0011912994 -0.003544953 0
0.0011912994 -0.0035449527 0
0.0011912994 -0.0035449525 0
0.0011912994 -0.0035449523 0
0.0011912994 -0.003544952 0
0.0011912994 -0.0035449518 0
0.0011912992 -0.0035449518 0
0.0011912991 -0.0035449518 0
0.0011912988 -0.0035449518 0
0.0011912986 -0.0035449518 0
0.0011912985 -0.0035449518 0
0.0011912982 -0.0035449518 0
0.0011912982 -0.003544952 0
0.0011912982 -0.0035449523 0
0.0011912982 -0.0035449525 0
0.0011912982 -0.0035449527 0
0.0011912982 -0.003544953 0

</DataArray>
</PointData>
<Points>
<DataArray type= "Float32" Name="Position"  NumberOfComponents= "3" format="ascii">
-8.6991768e-06 -8.8901405e-05 0
3.800822e-06 -8.8901405e-05 0
1.6300823e-05 -8.8901405e-05 0
2.8800821e-05 -8.8901405e-05 0
4.130082e-05 -8.8901405e-05 0
5.3800813e-05 -8.8901405e-05 0
6.630081e-05 -8.8901405e-05 0
6.630081e-05 -7.6401411e-05 0
6.630081e-05 -6.3901403e-05 0
6.630081e-05 -5.1401385e-05 0
6.630081e-05 -3.8901388e-05 0
6.630081e-05 -2.6401385e-05 0
6.630081e-05 -1.3901386e-05 0
5.3800813e-05 -1.3901386e-05 0
4.130082e-05 -1.3901386e-05 0
2.8800821e-05 -1.3901386e-05 0
1.6300823e-05 -1.3901386e-05 0
3.800822e-06 -1.3901386e-05 0
-8.6991768e-06 -1.3901386e-05 0
-8.6991768e-06 -2.6401385e-05 0
-8.6991768e-06 -3.8901388e-05 0
-8.6991768e-06 -5.1401385e-05 0
-8.6991768e-06 -6.3901403e-05 0
-8.6991768e-06 -7.6401411e-05 0

</DataArray>
</Points>
<Cells>
<DataArray type="Int32" Name="connectivity" format="ascii">
0 1 2 3 4 5 6 7 8 9 10 11 12 13 14 15 16 17 18 19 20 21 22 23 
</DataArray>

<DataArray type="Int32" Name="offsets" format="ascii">
1 2 3 4 5 6 7 8 9 10 11 12 13 14 15 16 17 18 19 20 21 22 23 24 
</DataArray>

<DataArray type="Int32" Name="types" format="ascii">
1 1 1 1 1 1 1 1 1 1 1 1 1 1 1 1 1 1 1 1 1 1 1 1 
</DataArray>
</Cells>
</Piece>
</UnstructuredGrid>
</VTKFile>