<?xml version="1.0" ?>

<VTKFile type="UnstructuredGrid" version="0.1" byte_order="BigEndian">

<UnstructuredGrid>

<Piece NumberOfPoints= " 24 " NumberOfCells=" 24 ">

<PointData Vectors="Velocity">

<DataArray type="Float32" Name="Velocity" NumberOfComponents="3" format="ascii">
0.0014732548 -0.021523934 0
0.0014732553 -0.021523934 0
0.0014732558 -0.021523934 0
0.0014732564 -0.021523934 0
0.001473257 -0.021523934 0
0.0014732574 -0.021523934 0
0.001473258 -0.021523934 0
0.001473258 -0.021523934 0
0.001473258 -0.021523932 0
0.001473258 -0.021523932 0
0.001473258 -0.021523932 0
0.001473258 -0.02152393 0
0.001473258 -0.02152393 0
0.0014732574 -0.02152393 0
0.001473257 -0.02152393 0
0.0014732564 -0.02152393 0
0.0014732558 -0.02152393 0
0.0014732553 -0.02152393 0
0.0014732548 -0.02152393 0
0.0014732548 -0.02152393 0
0.0014732548 -0.021523932 0
0.0014732548 -0.021523932 0
0.0014732548 -0.021523932 0
0.0014732548 -0.021523934 0

</DataArray>
</PointData>
<Points>
<DataArray type= "Float32" Name="Position"  NumberOfComponents= "3" format="ascii">
-2.0617445e-06 -0.00015136492 0
1.0438254e-05 -0.00015136492 0
2.2938255e-05 -0.00015136492 0
3.5438254e-05 -0.00015136492 0
4.7938243e-05 -0.00015136492 0
6.0438237e-05 -0.00015136492 0
7.2938288e-05 -0.00015136492 0
7.2938288e-05 -0.00013886494 0
7.2938288e-05 -0.00012636496 0
7.2938288e-05 -0.00011386494 0
7.2938288e-05 -0.00010136494 0
7.2938288e-05 -8.8864937e-05 0
7.2938288e-05 -7.6364944e-05 0
6.0438237e-05 -7.6364944e-05 0
4.7938243e-05 -7.6364944e-05 0
3.5438254e-05 -7.6364944e-05 0
2.2938255e-05 -7.6364944e-05 0
1.0438254e-05 -7.6364944e-05 0
-2.0617445e-06 -7.6364944e-05 0
-2.0617445e-06 -8.8864937e-05 0
-2.0617445e-06 -0.00010136494 0
-2.0617445e-06 -0.00011386494 0
-2.0617445e-06 -0.00012636496 0
-2.0617445e-06 -0.00013886494 0

</DataArray>
</Points>
<Cells>
<DataArray type="Int32" Name="connectivity" format="ascii">
0 1 2 3 4 5 6 7 8 9 10 11 12 13 14 15 16 17 18 19 20 21 22 23 
</DataArray>

<DataArray type="Int32" Name="offsets" format="ascii">
1 2 3 4 5 6 7 8 9 10 11 12 13 14 15 16 17 18 19 20 21 22 23 24 
</DataArray>

<DataArray type="Int32" Name="types" format="ascii">
1 1 1 1 1 1 1 1 1 1 1 1 1 1 1 1 1 1 1 1 1 1 1 1 
</DataArray>
</Cells>
</Piece>
</UnstructuredGrid>
</VTKFile>