<?xml version="1.0" ?>

<VTKFile type="UnstructuredGrid" version="0.1" byte_order="BigEndian">

<UnstructuredGrid>

<Piece NumberOfPoints= " 24 " NumberOfCells=" 24 ">

<PointData Vectors="Velocity">

<DataArray type="Float32" Name="Velocity" NumberOfComponents="3" format="ascii">
0.0013538899 -0.014101101 0
0.0013538903 -0.014101101 0
0.0013538908 -0.014101101 0
0.0013538911 -0.014101101 0
0.0013538914 -0.014101101 0
0.0013538919 -0.014101101 0
0.0013538923 -0.014101101 0
0.0013538923 -0.014101101 0
0.0013538923 -0.0141011 0
0.0013538923 -0.0141011 0
0.0013538923 -0.0141011 0
0.0013538923 -0.014101099 0
0.0013538923 -0.014101099 0
0.0013538919 -0.014101099 0
0.0013538914 -0.014101099 0
0.0013538911 -0.014101099 0
0.0013538908 -0.014101099 0
0.0013538903 -0.014101099 0
0.0013538899 -0.014101099 0
0.0013538899 -0.014101099 0
0.0013538899 -0.0141011 0
0.0013538899 -0.0141011 0
0.0013538899 -0.0141011 0
0.0013538899 -0.014101101 0

</DataArray>
</PointData>
<Points>
<DataArray type= "Float32" Name="Position"  NumberOfComponents= "3" format="ascii">
-4.8948641e-06 -0.00011536878 0
7.6051347e-06 -0.00011536878 0
2.0105135e-05 -0.00011536878 0
3.2605134e-05 -0.00011536878 0
4.5105124e-05 -0.00011536878 0
5.7605117e-05 -0.00011536878 0
7.0105176e-05 -0.00011536878 0
7.0105176e-05 -0.00010286879 0
7.0105176e-05 -9.0368783e-05 0
7.0105176e-05 -7.7868754e-05 0
7.0105176e-05 -6.5368753e-05 0
7.0105176e-05 -5.2868752e-05 0
7.0105176e-05 -4.0368755e-05 0
5.7605117e-05 -4.0368755e-05 0
4.5105124e-05 -4.0368755e-05 0
3.2605134e-05 -4.0368755e-05 0
2.0105135e-05 -4.0368755e-05 0
7.6051347e-06 -4.0368755e-05 0
-4.8948641e-06 -4.0368755e-05 0
-4.8948641e-06 -5.2868752e-05 0
-4.8948641e-06 -6.5368753e-05 0
-4.8948641e-06 -7.7868754e-05 0
-4.8948641e-06 -9.0368783e-05 0
-4.8948641e-06 -0.00010286879 0

</DataArray>
</Points>
<Cells>
<DataArray type="Int32" Name="connectivity" format="ascii">
0 1 2 3 4 5 6 7 8 9 10 11 12 13 14 15 16 17 18 19 20 21 22 23 
</DataArray>

<DataArray type="Int32" Name="offsets" format="ascii">
1 2 3 4 5 6 7 8 9 10 11 12 13 14 15 16 17 18 19 20 21 22 23 24 
</DataArray>

<DataArray type="Int32" Name="types" format="ascii">
1 1 1 1 1 1 1 1 1 1 1 1 1 1 1 1 1 1 1 1 1 1 1 1 
</DataArray>
</Cells>
</Piece>
</UnstructuredGrid>
</VTKFile>