<?xml version="1.0" ?>

<VTKFile type="UnstructuredGrid" version="0.1" byte_order="BigEndian">

<UnstructuredGrid>

<Piece NumberOfPoints= " 24 " NumberOfCells=" 24 ">

<PointData Vectors="Velocity">

<DataArray type="Float32" Name="Velocity" NumberOfComponents="3" format="ascii">
0.0012135366 -0.0010021512 0
0.0012135368 -0.0010021512 0
0.0012135369 -0.0010021512 0
0.0012135371 -0.0010021512 0
0.0012135372 -0.0010021512 0
0.0012135373 -0.0010021512 0
0.0012135375 -0.0010021512 0
0.0012135375 -0.0010021509 0
0.0012135375 -0.0010021508 0
0.0012135375 -0.0010021507 0
0.0012135375 -0.0010021506 0
0.0012135375 -0.0010021505 0
0.0012135375 -0.0010021502 0
0.0012135373 -0.0010021502 0
0.0012135372 -0.0010021502 0
0.0012135371 -0.0010021502 0
0.0012135369 -0.0010021502 0
0.0012135368 -0.0010021502 0
0.0012135366 -0.0010021502 0
0.0012135366 -0.0010021505 0
0.0012135366 -0.0010021506 0
0.0012135366 -0.0010021507 0
0.0012135366 -0.0010021508 0
0.0012135366 -0.0010021509 0

</DataArray>
</PointData>
<Points>
<DataArray type= "Float32" Name="Position"  NumberOfComponents= "3" format="ascii">
-9.8974924e-06 -8.6571352e-05 0
2.6025064e-06 -8.6571352e-05 0
1.5102506e-05 -8.6571352e-05 0
2.7602506e-05 -8.6571352e-05 0
4.010251e-05 -8.6571352e-05 0
5.2602503e-05 -8.6571352e-05 0
6.5102489e-05 -8.6571352e-05 0
6.5102489e-05 -7.4071359e-05 0
6.5102489e-05 -6.1571351e-05 0
6.5102489e-05 -4.9071328e-05 0
6.5102489e-05 -3.6571331e-05 0
6.5102489e-05 -2.4071329e-05 0
6.5102489e-05 -1.157133e-05 0
5.2602503e-05 -1.157133e-05 0
4.010251e-05 -1.157133e-05 0
2.7602506e-05 -1.157133e-05 0
1.5102506e-05 -1.157133e-05 0
2.6025064e-06 -1.157133e-05 0
-9.8974924e-06 -1.157133e-05 0
-9.8974924e-06 -2.4071329e-05 0
-9.8974924e-06 -3.6571331e-05 0
-9.8974924e-06 -4.9071328e-05 0
-9.8974924e-06 -6.1571351e-05 0
-9.8974924e-06 -7.4071359e-05 0

</DataArray>
</Points>
<Cells>
<DataArray type="Int32" Name="connectivity" format="ascii">
0 1 2 3 4 5 6 7 8 9 10 11 12 13 14 15 16 17 18 19 20 21 22 23 
</DataArray>

<DataArray type="Int32" Name="offsets" format="ascii">
1 2 3 4 5 6 7 8 9 10 11 12 13 14 15 16 17 18 19 20 21 22 23 24 
</DataArray>

<DataArray type="Int32" Name="types" format="ascii">
1 1 1 1 1 1 1 1 1 1 1 1 1 1 1 1 1 1 1 1 1 1 1 1 
</DataArray>
</Cells>
</Piece>
</UnstructuredGrid>
</VTKFile>