<?xml version="1.0" ?>

<VTKFile type="UnstructuredGrid" version="0.1" byte_order="BigEndian">

<UnstructuredGrid>

<Piece NumberOfPoints= " 2009 " NumberOfCells=" 2009 ">

<PointData Scalars="Pressure" Vectors="Velocity">

<DataArray type="Float32" Name="Pressure" format="ascii">

13.0898 15.2357 7.93955 4.2916 2.78952 1.28747 2.78952 2.78952 1.28747 1.28747 2.78952 2.78952 2.78952 4.39889 2.78952 2.78952 2.78952 2.78952 2.78952 1.28747 2.78952 2.78952 1.28747 1.28747 2.78952 2.78952 1.28747 2.78952 2.78952 1.28747 1.28747 2.78952 2.78952 1.28747 1.28747 2.78952 2.78952 1.28747 3.64785 8.69061 9.01249 12.0168 15.7722 7.93955 5.04264 3.75514 1.82391 3.75514 3.75514 1.82391 1.82391 3.75514 3.75514 3.75514 5.5791 3.75514 3.75514 3.75514 3.75514 3.75514 1.82391 3.75514 3.75514 1.82391 1.82391 3.75514 3.75514 1.82391 3.75514 3.75514 1.82391 1.82391 3.75514 3.75514 1.82391 1.82391 3.75514 3.75514 1.82391 4.2916 9.54897 8.69061 3.96972 4.82805 1.9312 0 0 0 0 0 0 0 0 0 0 0.429154 0 0 0 0 0 0 0 0 0 0 0 0 0 0 0 0 0 0 0 0 0 0 0 0 1.07289 3.96972 3.32598 2.78952 3.75514 0 0 0 0 0 0 0 0 0 0 0 0 0 0 0 0 0 0 0 0 0 0 0 0 0 0 0 0 0 0 0 0 0 0 0 0 0 3.75514 2.78952 2.68223 3.64785 0 0 0 0 0 0 0 0 0 0 0 0 0 0 0 0 0 0 0 0 0 0 0 0 0 0 0 0 0 0 0 0 0 0 0 0 0 3.64785 2.68223 1.28747 1.82391 0 0 0 0 0 0 0 0 0 0 0 0 0 0 0 0 0 0 0 0 0 0 0 0 0 0 0 0 0 0 0 0 0 0 0 0 0 1.82391 1.28747 2.78952 3.75514 0 0 0 0 0 0 0 0 0 0 0 0 0 0 0 0 0 0 0 0 0 0 0 0 0 0 0 0 0 0 0 0 0 0 0 0 0 3.75514 2.78952 2.78952 3.75514 0 0 0 0 0 0 0 0 0 0 0 0 0 0 0 0 0 0 0 0 0 0 0 0 0 0 0 0 0 0 0 0 0 0 0 0 0 3.75514 2.78952 1.28747 1.82391 0 0 0 0 0 0 0 0 0 0 0 0 0 0 0 0 0 0 0 0 0 0 0 0 0 0 0 0 0 0 0 0 0 0 0 0 0 1.82391 1.28747 1.28747 1.82391 0 0 0 0 0 0 0 0 0 0 0 0 0 0 0 0 0 0 0 0 0 0 0 0 0 0 0 0 0 0 0 0 0 0 0 0 0 1.82391 1.28747 2.78952 3.75514 0 0 0 0 0 0 0 0 0 0 0 0 0 0 0 0 0 0 0 0 0 0 0 0 0 0 0 0 0 0 0 0 0 0 0 0 0 3.75514 2.78952 2.78952 3.75514 0 0 0 0 0 0 0 0 0 0 0 0 0 0 0 0 0 0 0 0 0 0 0 0 0 0 0 0 0 0 0 0 0 0 0 0 0 3.75514 2.78952 2.78952 3.75514 0 0 0 0 0 0 0 0 0 0 0 0 0 0 0 0 0 0 0 0 0 0 0 0 0 0 0 0 0 0 0 0 0 0 0 0 0 3.75514 2.78952 4.39889 5.5791 0.429154 0 0 0 0 0 0 0 0 0 0 0 0 0 0 0 0 0 0 0 0 0 0 0 0 0 0 0 0 0 0 0 0 0 0 0 0.429154 5.5791 4.39889 2.78952 3.75514 0 0 0 0 0 0 0 0 0 0 0 0 0 0 0 0 0 0 0 0 0 0 0 0 0 0 0 0 0 0 0 0 0 0 0 0 0 3.75514 2.78952 2.78952 3.75514 0 0 0 0 0 0 0 0 0 0 0 0 0 0 0 0 0 0 0 0 0 0 0 0 0 0 0 0 0 0 0 0 0 0 0 0 0 3.75514 2.78952 2.78952 3.75514 0 0 0 0 0 0 0 0 0 0 0 0 0 0 0 0 0 0 0 0 0 0 0 0 0 0 0 0 0 0 0 0 0 0 0 0 0 3.75514 2.78952 2.78952 3.75514 0 0 0 0 0 0 0 0 0 0 0 0 0 0 0 0 0 0 0 0 0 0 0 0 0 0 0 0 0 0 0 0 0 0 0 0 0 3.75514 2.78952 2.78952 3.75514 0 0 0 0 0 0 0 0 0 0 0 0 0 0 0 0 0 0 0 0 0 0 0 0 0 0 0 0 0 0 0 0 0 0 0 0 0 3.75514 2.78952 1.28747 1.82391 0 0 0 0 0 0 0 0 0 0 0 0 0 0 0 0 0 0 0 0 0 0 0 0 0 0 0 0 0 0 0 0 0 0 0 0 0 1.82391 1.28747 2.78952 3.75514 0 0 0 0 0 0 0 0 0 0 0 0 0 0 0 0 0 0 0 0 0 0 0 0 0 0 0 0 0 0 0 0 0 0 0 0 0 3.75514 2.78952 2.78952 3.75514 0 0 0 0 0 0 0 0 0 0 0 0 0 0 0 0 0 0 0 0 0 0 0 0 0 0 0 0 0 0 0 0 0 0 0 0 0 3.75514 2.78952 1.28747 1.82391 0 0 0 0 0 0 0 0 0 0 0 0 0 0 0 0 0 0 0 0 0 0 0 0 0 0 0 0 0 0 0 0 0 0 0 0 0 1.82391 1.28747 1.28747 1.82391 0 0 0 0 0 0 0 0 0 0 0 0 0 0 0 0 0 0 0 0 0 0 0 0 0 0 0 0 0 0 0 0 0 0 0 0 0 1.82391 1.28747 2.78952 3.75514 0 0 0 0 0 0 0 0 0 0 0 0 0 0 0 0 0 0 0 0 0 0 0 0 0 0 0 0 0 0 0 0 0 0 0 0 0 3.75514 2.78952 2.78952 3.75514 0 0 0 0 0 0 0 0 0 0 0 0 0 0 0 0 0 0 0 0 0 0 0 0 0 0 0 0 0 0 0 0 0 0 0 0 0 3.75514 2.78952 1.28747 1.82391 0 0 0 0 0 0 0 0 0 0 0 0 0 0 0 0 0 0 0 0 0 0 0 0 0 0 0 0 0 0 0 0 0 0 0 0 0 1.82391 1.28747 2.78952 3.75514 0 0 0 0 0 0 0 0 0 0 0 0 0 0 0 0 0 0 0 0 0 0 0 0 0 0 0 0 0 0 0 0 0 0 0 0 0 3.75514 2.78952 2.78952 3.75514 0 0 0 0 0 0 0 0 0 0 0 0 0 0 0 0 0 0 0 0 0 0 0 0 0 0 0 0 0 0 0 0 0 0 0 0 0 3.75514 2.78952 1.28747 1.82391 0 0 0 0 0 0 0 0 0 0 0 0 0 0 0 0 0 0 0 0 0 0 0 0 0 0 0 0 0 0 0 0 0 0 0 0 0 1.82391 1.28747 1.28747 1.82391 0 0 0 0 0 0 0 0 0 0 0 0 0 0 0 0 0 0 0 0 0 0 0 0 0 0 0 0 0 0 0 0 0 0 0 0 0 1.82391 1.28747 2.78952 3.75514 0 0 0 0 0 0 0 0 0 0 0 0 0 0 0 0 0 0 0 0 0 0 0 0 0 0 0 0 0 0 0 0 0 0 0 0 0 3.75514 2.78952 2.78952 3.75514 0 0 0 0 0 0 0 0 0 0 0 0 0 0 0 0 0 0 0 0 0 0 0 0 0 0 0 0 0 0 0 0 0 0 0 0 0 3.75514 2.78952 1.28747 1.82391 0 0 0 0 0 0 0 0 0 0 0 0 0 0 0 0 0 0 0 0 0 0 0 0 0 0 0 0 0 0 0 0 0 0 0 0 0 1.82391 1.28747 1.28747 1.82391 0 0 0 0 0 0 0 0 0 0 0 0 0 0 0 0 0 0 0 0 0 0 0 0 0 0 0 0 0 0 0 0 0 0 0 0 0 1.82391 1.28747 2.78952 3.75514 0 0 0 0 0 0 0 0 0 0 0 0 0 0 0 0 0 0 0 0 0 0 0 0 0 0 0 0 0 0 0 0 0 0 0 0 0 3.75514 2.78952 2.78952 3.75514 0 0 0 0 0 0 0 0 0 0 0 0 0 0 0 0 0 0 0 0 0 0 0 0 0 0 0 0 0 0 0 0 0 0 0 0 0 3.75514 2.78952 1.28747 1.82391 0 0 0 0 0 0 0 0 0 0 0 0 0 0 0 0 0 0 0 0 0 0 0 0 0 0 0 0 0 0 0 0 0 0 0 0 0 1.82391 1.28747 3.64785 4.2916 1.07289 0 0 0 0 0 0 0 0 0 0 0.429154 0 0 0 0 0 0 0 0 0 0 0 0 0 0 0 0 0 0 0 0 0 0 0 0 1.18018 4.2916 3.64785 8.69061 9.54897 3.96972 3.75514 3.64785 1.82391 3.75514 3.75514 1.82391 1.82391 3.75514 3.75514 3.75514 5.5791 3.75514 3.75514 3.75514 3.75514 3.75514 1.82391 3.75514 3.75514 1.82391 1.82391 3.75514 3.75514 1.82391 3.75514 3.75514 1.82391 1.82391 3.75514 3.75514 1.82391 1.82391 3.75514 3.75514 1.82391 4.2916 9.54897 8.69061 9.01249 8.69061 3.32598 2.78952 2.68223 1.28747 2.78952 2.78952 1.28747 1.28747 2.78952 2.78952 2.78952 4.39889 2.78952 2.78952 2.78952 2.78952 2.78952 1.28747 2.78952 2.78952 1.28747 1.28747 2.78952 2.78952 1.28747 2.78952 2.78952 1.28747 1.28747 2.78952 2.78952 1.28747 1.28747 2.78952 2.78952 1.28747 3.64785 8.69061 9.01249 0.1 0.1 0.1 0.1 0.1 0.1 0.1 0.1 0.1 0.1 0.1 0.1 0.1 0.1 0.1 0.1 0.1 0.1 0.1 0.1 0.1 0.1 0.1 0.1 0.1 0.1 0.1 0.1 0.1 0.1 0.1 0.1 0.1 0.1 0.1 0.1 0.1 0.1 0.1 0.1 0.1 0.1 0.1 0.1 0.1 0.1 0.1 0.1 0.1 0.1 0.1 0.1 0.1 0.1 0.1 0.1 0.1 0.1 0.1 0.1 0.1 0.1 0.1 0.1 0.1 0.1 0.1 0.1 0.1 0.1 0.1 0.1 0.1 0.1 0.1 0.1 0.1 0.1 0.1 0.1 0.1 0.1 0.1 0.1 0.1 0.1 0.1 0.1 0.1 0.1 0.1 0.1 0.1 0.1 0.1 0.1 0.1 0.1 0.1 0.1 0.1 0.1 0.1 0.1 0.1 0.1 0.1 0.1 0.1 0.1 0.1 0.1 0.1 0.1 0.1 0.1 0.1 0.1 0.1 0.1 0.1 0.1 0.1 0.1 0.1 0.1 0.1 0.1 0.1 0.1 0.1 0.1 0.1 0.1 0.1 0.1 0.1 0.1 0.1 0.1 0.1 0.1 0.1 0.1 0.1 0.1 0.1 0.1 0.1 0.1 0.1 0.1 0.1 0.1 0.1 0.1 0.1 0.1 0.1 0.1 0.1 0.1 0.1 0.1 0.1 0.1 0.1 0.1 0.1 0.1 0.1 0.1 0.1 0.1 0.1 0.1 0.1 0.1 0.1 0.1 0.1 0.1 0.1 0.1 0.1 0.1 0.1 0.1 0.1 0.1 0.1 0.1 0.1 0.1 0.1 0.1 0.1 0.1 0.1 0.1 0.1 0.1 0.1 0.1 0.1 0.1 0.1 0.1 0.1 0.1 0.1 0.1 0.1 0.1 0.1 0.1 0.1 0.1 0.1 0.1 0.1 0.1 0.1 0.1 0.1 0.1 0.1 0.1 0.1 0.1 0.1 0.1 0.1 0.1 0.1 0.1 0.1 0.1 0.1 0.1 0.1 0.1 0.1 0.1 0.1 0.1 0.1 0.1 0.1 0.1 0.1 0.1 0.1 0.1 0.1 0.1 0.1 0.1 0.1 0.1 0.1 0.1 0.1 0.1 0.1 0.1 0.1 0.1 0.1 0.1 0.1 0.1 0.1 0.1 0.1 0.1 0.1 0.1 0.1 0.1 0.1 0.1 0.1 0.1 0.1 0.1 0.1 0.1 0.1 0.1 0.1 0.1 0.1 0.1 0.1 0.1 0.1 0.1 0.1 0.1 0.1 0.1 0.1 0.1 0.1 0.1 0.1 0.1 0.1 0.1 0.1 0.1 0.1 0.1 0.1 0.1 0.1 0.1 0.1 0.1 0.1 0.1 0.1 0.1 0.1 0.1 0.1 0.1 
</DataArray>

<DataArray type="Float32" Name="Density" format="ascii">
1000.01 1000.02 1000.01 1000 1000 1000 1000 1000 1000 1000 1000 1000 1000 1000 1000 1000 1000 1000 1000 1000 1000 1000 1000 1000 1000 1000 1000 1000 1000 1000 1000 1000 1000 1000 1000 1000 1000 1000 1000 1000.01 1000.01 1000.01 1000.02 1000.01 1000.01 1000 1000 1000 1000 1000 1000 1000 1000 1000 1000.01 1000 1000 1000 1000 1000 1000 1000 1000 1000 1000 1000 1000 1000 1000 1000 1000 1000 1000 1000 1000 1000 1000 1000 1000 1000 1000.01 1000.01 1000 1000.01 1000 1000 1000 1000 1000 1000 1000 1000 1000 1000 1000 1000 1000 1000 1000 1000 1000 1000 1000 1000 1000 1000 1000 1000 1000 1000 1000 1000 1000 1000 1000 1000 1000 1000 1000 1000 1000 1000 1000 1000 1000 1000 1000 1000 1000 1000 1000 1000 1000 1000 1000 1000 1000 1000 1000 1000 1000 1000 1000 1000 1000 1000 1000 1000 1000 1000 1000 1000 1000 1000 1000 1000 1000 1000 1000 1000 1000 1000 1000 1000 1000 1000 1000 1000 1000 1000 1000 1000 1000 1000 1000 1000 1000 1000 1000 1000 1000 1000 1000 1000 1000 1000 1000 1000 1000 1000 1000 1000 1000 1000 1000 1000 1000 1000 1000 1000 1000 1000 1000 1000 1000 1000 1000 1000 1000 1000 1000 1000 1000 1000 1000 1000 1000 1000 1000 1000 1000 1000 1000 1000 1000 1000 1000 1000 1000 1000 1000 1000 1000 1000 1000 1000 1000 1000 1000 1000 1000 1000 1000 1000 1000 1000 1000 1000 1000 1000 1000 1000 1000 1000 1000 1000 1000 1000 1000 1000 1000 1000 1000 1000 1000 1000 1000 1000 1000 1000 1000 1000 1000 1000 1000 1000 1000 1000 1000 1000 1000 1000 1000 1000 1000 1000 1000 1000 1000 1000 1000 1000 1000 1000 1000 1000 1000 1000 1000 1000 1000 1000 1000 1000 1000 1000 1000 1000 1000 1000 1000 1000 1000 1000 1000 1000 1000 1000 1000 1000 1000 1000 1000 1000 1000 1000 1000 1000 1000 1000 1000 1000 1000 1000 1000 1000 1000 1000 1000 1000 1000 1000 1000 1000 1000 1000 1000 1000 1000 1000 1000 1000 1000 1000 1000 1000 1000 1000 1000 1000 1000 1000 1000 1000 1000 1000 1000 1000 1000 1000 1000 1000 1000 1000 1000 1000 1000 1000 1000 1000 1000 1000 1000 1000 1000 1000 1000 1000 1000 1000 1000 1000 1000 1000 1000 1000 1000 1000 1000 1000 1000 1000 1000 1000 1000 1000 1000 1000 1000 1000 1000 1000 1000 1000 1000 1000 1000 1000 1000 1000 1000 1000 1000 1000 1000 1000 1000 1000 1000 1000 1000 1000 1000 1000 1000 1000 1000 1000 1000 1000 1000 1000 1000 1000 1000 1000 1000 1000 1000 1000 1000 1000 1000 1000 1000 1000 1000 1000 1000 1000 1000 1000 1000 1000 1000 1000 1000 1000 1000 1000 1000 1000 1000 1000 1000 1000 1000 1000 1000 1000 1000 1000 1000 1000 1000 1000 1000 1000 1000 1000 1000 1000 1000 1000 1000 1000 1000 1000 1000 1000 1000 1000 1000 1000 1000 1000 1000 1000 1000 1000 1000 1000 1000 1000 1000 1000 1000 1000 1000 1000 1000 1000 1000 1000 1000 1000 1000 1000 1000 1000 1000 1000 1000 1000 1000.01 1000 1000 1000 1000 1000 1000 1000 1000 1000 1000 1000 1000 1000 1000 1000 1000 1000 1000 1000 1000 1000 1000 1000 1000 1000 1000 1000 1000 1000 1000 1000 1000 1000 1000 1000 1000 1000 1000.01 1000 1000 1000 1000 1000 1000 1000 1000 1000 1000 1000 1000 1000 1000 1000 1000 1000 1000 1000 1000 1000 1000 1000 1000 1000 1000 1000 1000 1000 1000 1000 1000 1000 1000 1000 1000 1000 1000 1000 1000 1000 1000 1000 1000 1000 1000 1000 1000 1000 1000 1000 1000 1000 1000 1000 1000 1000 1000 1000 1000 1000 1000 1000 1000 1000 1000 1000 1000 1000 1000 1000 1000 1000 1000 1000 1000 1000 1000 1000 1000 1000 1000 1000 1000 1000 1000 1000 1000 1000 1000 1000 1000 1000 1000 1000 1000 1000 1000 1000 1000 1000 1000 1000 1000 1000 1000 1000 1000 1000 1000 1000 1000 1000 1000 1000 1000 1000 1000 1000 1000 1000 1000 1000 1000 1000 1000 1000 1000 1000 1000 1000 1000 1000 1000 1000 1000 1000 1000 1000 1000 1000 1000 1000 1000 1000 1000 1000 1000 1000 1000 1000 1000 1000 1000 1000 1000 1000 1000 1000 1000 1000 1000 1000 1000 1000 1000 1000 1000 1000 1000 1000 1000 1000 1000 1000 1000 1000 1000 1000 1000 1000 1000 1000 1000 1000 1000 1000 1000 1000 1000 1000 1000 1000 1000 1000 1000 1000 1000 1000 1000 1000 1000 1000 1000 1000 1000 1000 1000 1000 1000 1000 1000 1000 1000 1000 1000 1000 1000 1000 1000 1000 1000 1000 1000 1000 1000 1000 1000 1000 1000 1000 1000 1000 1000 1000 1000 1000 1000 1000 1000 1000 1000 1000 1000 1000 1000 1000 1000 1000 1000 1000 1000 1000 1000 1000 1000 1000 1000 1000 1000 1000 1000 1000 1000 1000 1000 1000 1000 1000 1000 1000 1000 1000 1000 1000 1000 1000 1000 1000 1000 1000 1000 1000 1000 1000 1000 1000 1000 1000 1000 1000 1000 1000 1000 1000 1000 1000 1000 1000 1000 1000 1000 1000 1000 1000 1000 1000 1000 1000 1000 1000 1000 1000 1000 1000 1000 1000 1000 1000 1000 1000 1000 1000 1000 1000 1000 1000 1000 1000 1000 1000 1000 1000 1000 1000 1000 1000 1000 1000 1000 1000 1000 1000 1000 1000 1000 1000 1000 1000 1000 1000 1000 1000 1000 1000 1000 1000 1000 1000 1000 1000 1000 1000 1000 1000 1000 1000 1000 1000 1000 1000 1000 1000 1000 1000 1000 1000 1000 1000 1000 1000 1000 1000 1000 1000 1000 1000 1000 1000 1000 1000 1000 1000 1000 1000 1000 1000 1000 1000 1000 1000 1000 1000 1000 1000 1000 1000 1000 1000 1000 1000 1000 1000 1000 1000 1000 1000 1000 1000 1000 1000 1000 1000 1000 1000 1000 1000 1000 1000 1000 1000 1000 1000 1000 1000 1000 1000 1000 1000 1000 1000 1000 1000 1000 1000 1000 1000 1000 1000 1000 1000 1000 1000 1000 1000 1000 1000 1000 1000 1000 1000 1000 1000 1000 1000 1000 1000 1000 1000 1000 1000 1000 1000 1000 1000 1000 1000 1000 1000 1000 1000 1000 1000 1000 1000 1000 1000 1000 1000 1000 1000 1000 1000 1000 1000 1000 1000 1000 1000 1000 1000 1000 1000 1000 1000 1000 1000 1000 1000 1000 1000 1000 1000 1000 1000 1000 1000 1000 1000 1000 1000 1000 1000 1000 1000 1000 1000 1000 1000 1000 1000 1000 1000 1000 1000 1000 1000 1000 1000 1000 1000 1000 1000 1000 1000 1000 1000 1000 1000 1000 1000 1000 1000 1000 1000 1000 1000 1000 1000 1000 1000 1000 1000 1000 1000 1000 1000 1000 1000 1000 1000 1000 1000 1000 1000 1000 1000 1000 1000 1000 1000 1000 1000 1000 1000 1000 1000 1000 1000 1000 1000 1000 1000 1000 1000 1000 1000 1000 1000 1000 1000 1000 1000 1000 1000 1000 1000 1000 1000 1000 1000 1000 1000 1000 1000 1000 1000 1000 1000 1000 1000 1000 1000 1000 1000 1000 1000 1000 1000 1000 1000 1000 1000 1000 1000 1000 1000 1000 1000 1000 1000 1000 1000 1000 1000 1000 1000 1000 1000 1000 1000 1000 1000 1000 1000 1000 1000 1000 1000 1000 1000 1000 1000 1000 1000 1000 1000 1000 1000 1000 1000 1000 1000 1000 1000 1000 1000 1000 1000 1000 1000 1000 1000 1000 1000 1000 1000 1000 1000 1000 1000 1000 1000 1000 1000 1000 1000 1000 1000 1000 1000 1000 1000 1000 1000 1000 1000 1000 1000 1000 1000 1000 1000 1000 1000 1000 1000 1000 1000 1000 1000 1000 1000 1000 1000 1000 1000 1000 1000 1000 1000 1000 1000 1000 1000 1000 1000 1000 1000 1000 1000 1000 1000 1000 1000 1000 1000 1000 1000 1000 1000 1000 1000 1000 1000 1000 1000 1000 1000 1000 1000 1000 1000 1000 1000 1000 1000 1000 1000 1000 1000 1000 1000 1000 1000 1000 1000 1000 1000 1000 1000 1000 1000 1000 1000 1000 1000 1000 1000 1000 1000 1000 1000 1000 1000 1000 1000 1000 1000 1000 1000 1000 1000 1000 1000 1000 1000 1000 1000 1000 1000 1000 1000 1000 1000 1000 1000 1000 1000 1000 1000 1000 1000 1000 1000 1000 1000 1000 1000 1000 1000 1000 1000 1000 1000 1000 1000 1000 1000 1000 1000 1000 1000 1000 1000 1000 1000 1000 1000 1000 1000 1000 1000 1000 1000 1000 1000 1000 1000 1000 1000 1000 1000 1000 1000 1000 1000 1000 1000 1000 1000 1000 1000 1000 1000 1000 1000 1000 1000 1000 1000 1000 1000 1000 1000 1000 1000 1000 1000 1000 1000 1000 1000 1000 1000 1000 1000 1000 1000 1000 1000 1000 1000 1000 1000 1000 1000 1000 1000 1000 1000 1000 1000 1000 1000 1000 1000 1000 1000 1000 1000 1000 1000 1000 1000 1000 1000 1000 1000 1000 1000 1000 1000 1000 1000 1000 1000 1000 1000 1000 1000 1000 1000 1000 1000 1000 1000 1000 1000 1000 1000 1000 1000 1000 1000 1000 1000 1000 1000 1000 1000 1000 1000 1000 1000 1000 1000 1000 1000 1000 1000 1000 1000 1000 1000 1000 1000 1000 1000 1000 1000 1000 1000 1000 1000 1000 1000 1000 1000 1000 1000 1000 1000 1000 1000 1000 1000 1000 1000 1000 1000 1000 1000 1000 1000 1000 1000 1000 1000 1000 1000 1000 1000 1000 1000 1000 1000 1000 1000 1000 1000 1000 1000 1000 1000 1000 1000.01 1000.01 1000 1000 1000 1000 1000 1000 1000 1000 1000 1000 1000 1000.01 1000 1000 1000 1000 1000 1000 1000 1000 1000 1000 1000 1000 1000 1000 1000 1000 1000 1000 1000 1000 1000 1000 1000 1000 1000 1000.01 1000.01 1000.01 1000.01 1000 1000 1000 1000 1000 1000 1000 1000 1000 1000 1000 1000 1000 1000 1000 1000 1000 1000 1000 1000 1000 1000 1000 1000 1000 1000 1000 1000 1000 1000 1000 1000 1000 1000 1000 1000 1000 1000.01 1000.01 1000 1000 1000 1000 1000 1000 1000 1000 1000 1000 1000 1000 1000 1000 1000 1000 1000 1000 1000 1000 1000 1000 1000 1000 1000 1000 1000 1000 1000 1000 1000 1000 1000 1000 1000 1000 1000 1000 1000 1000 1000 1000 1000 1000 1000 1000 1000 1000 1000 1000 1000 1000 1000 1000 1000 1000 1000 1000 1000 1000 1000 1000 1000 1000 1000 1000 1000 1000 1000 1000 1000 1000 1000 1000 1000 1000 1000 1000 1000 1000 1000 1000 1000 1000 1000 1000 1000 1000 1000 1000 1000 1000 1000 1000 1000 1000 1000 1000 1000 1000 1000 1000 1000 1000 1000 1000 1000 1000 1000 1000 1000 1000 1000 1000 1000 1000 1000 1000 1000 1000 1000 1000 1000 1000 1000 1000 1000 1000 1000 1000 1000 1000 1000 1000 1000 1000 1000 1000 1000 1000 1000 1000 1000 1000 1000 1000 1000 1000 1000 1000 1000 1000 1000 1000 1000 1000 1000 1000 1000 1000 1000 1000 1000 1000 1000 1000 1000 1000 1000 1000 1000 1000 1000 1000 1000 1000 1000 1000 1000 1000 1000 1000 1000 1000 1000 1000 1000 1000 1000 1000 1000 1000 1000 1000 1000 1000 1000 1000 1000 1000 1000 1000 1000 1000 1000 1000 1000 1000 1000 1000 1000 1000 1000 1000 1000 1000 1000 1000 1000 1000 1000 1000 1000 1000 1000 1000 1000 1000 1000 1000 1000 1000 1000 1000 1000 1000 1000 1000 1000 1000 1000 1000 1000 1000 1000 1000 1000 1000 1000 1000 1000 1000 1000 1000 1000 1000 1000 1000 1000 1000 1000 1000 1000 1000 1000 1000 1000 1000 1000 1000 1000 1000 1000 1000 1000 1000 1000 1000 1000 1000 1000 1000 1000 1000 1000 1000 1000 1000 1000 1000 1000 1000 1000 1000 1000 1000 1000 1000 1000 1000 1000 1000 1000 1000 1000 1000 1000 1000 1000 1000 1000 1000 1000 1000 1000 1000 1000 1000 1000 1000 1000 1000 1000 1000 1000 1000 1000 1000 
</DataArray>
<DataArray type="Float32" Name="Velocity" NumberOfComponents="3" format="ascii">
0.0040364522 0.0050487299 0
0.00078896026 0.0053176656 0
-0.00058366713 0.005122459 0
-9.4148973e-09 0.0043658675 0
4.7746487e-09 0.0035980993 0
0 0.0020383412 0
-8.6668805e-08 0.0035980993 0
8.6668805e-08 0.0035980993 0
0 0.0020383412 0
0 0.0020383412 0
-1.583207e-07 0.0035980991 0
-1.5738788e-08 0.0035980993 0
1.6929005e-07 0.0035980993 0
0 0.0048491526 0
-1.6929005e-07 0.0035980993 0
-1.4808727e-07 0.0035980993 0
1.4971501e-08 0.0035980993 0
1.4885065e-07 0.0035980993 0
1.583207e-07 0.0035980991 0
0 0.0020383412 0
-2.9138644e-07 0.0035980991 0
2.9138644e-07 0.0035980991 0
0 0.0020383412 0
0 0.0020383412 0
-2.9138644e-07 0.0035980991 0
2.9138644e-07 0.0035980991 0
0 0.0020383412 0
-2.9138644e-07 0.0035980991 0
2.9138644e-07 0.0035980991 0
0 0.0020383412 0
0 0.0020383412 0
-2.9138644e-07 0.0035980991 0
2.9138644e-07 0.0035980991 0
0 0.0020383412 0
0 0.0020383412 0
-2.9138644e-07 0.0035980991 0
2.9138644e-07 0.0035980991 0
0 0.0020383412 0
-9.0767644e-06 0.0035970144 0
-0.00078866998 0.00361657 0
-0.0037779007 0.0037777156 0
0.0035731373 0.0010398863 0
0.00085801026 0.0013086954 0
2.7357632e-05 0.0012187682 0
5.0700373e-06 0.0010387831 0
4.7746487e-09 0.00084626046 0
0 0.00044322401 0
-8.6879346e-08 0.00084626046 0
8.6879346e-08 0.00084626046 0
0 0.00044322401 0
0 0.00044322401 0
-1.5872008e-07 0.00084626046 0
-1.573139e-08 0.00084626046 0
1.6965157e-07 0.00084626046 0
0 0.0012125219 0
-1.6965157e-07 0.00084626046 0
-1.4839948e-07 0.00084626046 0
1.4962614e-08 0.00084626046 0
1.4918103e-07 0.00084626046 0
1.5872008e-07 0.00084626046 0
0 0.00044322401 0
-2.9212501e-07 0.00084626046 0
2.9212501e-07 0.00084626046 0
0 0.00044322401 0
0 0.00044322401 0
-2.9212501e-07 0.00084626046 0
2.9212501e-07 0.00084626046 0
0 0.00044322401 0
-2.9212501e-07 0.00084626046 0
2.9212501e-07 0.00084626046 0
0 0.00044322401 0
0 0.00044322401 0
-2.9212501e-07 0.00084626046 0
2.9212501e-07 0.00084626046 0
0 0.00044322401 0
0 0.00044322401 0
-2.9212501e-07 0.00084626046 0
2.9212501e-07 0.00084626046 0
0 0.00044322401 0
-9.7743914e-06 0.00084660825 0
-0.00085464207 0.00085987645 0
-0.0036033294 0.00078742375 0
0.003505033 1.3823172e-05 0
0.00081632513 1.3512794e-05 0
4.9438072e-06 9.319946e-06 0
8.2988788e-07 6.6541465e-06 0
5.4332245e-09 4.544213e-06 0
0 1.926936e-06 0
-4.7004738e-09 4.544213e-06 0
4.7004738e-09 4.544213e-06 0
0 1.926936e-06 0
0 1.926936e-06 0
-4.6419926e-09 4.544213e-06 0
4.7695119e-09 4.544213e-06 0
-3.5618044e-08 4.5442071e-06 0
0 7.1897612e-06 0
3.5618044e-08 4.5442071e-06 0
-4.6944293e-09 4.544213e-06 0
4.7787165e-09 4.544213e-06 0
-4.8626863e-09 4.544213e-06 0
4.6419926e-09 4.544213e-06 0
0 1.926936e-06 0
-4.5497988e-09 4.544213e-06 0
4.5497988e-09 4.544213e-06 0
0 1.926936e-06 0
0 1.926936e-06 0
-4.5497988e-09 4.544213e-06 0
4.5497988e-09 4.544213e-06 0
0 1.926936e-06 0
-4.5497988e-09 4.544213e-06 0
4.5497988e-09 4.544213e-06 0
0 1.926936e-06 0
0 1.926936e-06 0
-4.5497988e-09 4.544213e-06 0
4.5497988e-09 4.544213e-06 0
0 1.926936e-06 0
0 1.926936e-06 0
-4.5497988e-09 4.544213e-06 0
4.5497988e-09 4.544213e-06 0
-2.616332e-07 1.9268896e-06 0
-4.4126487e-06 4.9966407e-06 0
-0.00081075158 5.5869341e-06 0
-0.0034905695 8.7790713e-06 0
0.0035981061 1.0151669e-07 0
0.00084629463 2.0485913e-06 0
4.5442544e-06 8.364791e-07 0
1.4244462e-09 4.5695039e-09 0
4.7746487e-09 1.4245511e-09 0
0 -2.2866891e-09 0
-4.7746509e-09 1.4245511e-09 0
4.7746509e-09 1.4245511e-09 0
0 -2.2866891e-09 0
0 -2.2866891e-09 0
-4.7746509e-09 1.4245511e-09 0
4.7746509e-09 1.4245511e-09 0
-4.7746509e-09 1.4245505e-09 0
0 3.5754709e-08 0
4.7746509e-09 1.4245505e-09 0
-4.7746509e-09 1.4245511e-09 0
4.7746509e-09 1.4245511e-09 0
-4.7746509e-09 1.4245511e-09 0
4.7746509e-09 1.4245511e-09 0
0 -2.2866891e-09 0
-4.7746562e-09 1.4245511e-09 0
4.7746562e-09 1.4245511e-09 0
0 -2.2866891e-09 0
0 -2.2866891e-09 0
-4.7746562e-09 1.4245511e-09 0
4.7746562e-09 1.4245511e-09 0
0 -2.2866891e-09 0
-4.7746562e-09 1.4245511e-09 0
4.7746562e-09 1.4245511e-09 0
0 -2.2866891e-09 0
0 -2.2866891e-09 0
-4.7746562e-09 1.4245511e-09 0
4.7746562e-09 1.4245511e-09 0
0 -2.2866891e-09 0
0 -2.2866891e-09 0
-4.7746562e-09 1.4245511e-09 0
4.7746562e-09 1.4245511e-09 0
-6.021267e-09 -2.2867137e-09 0
-4.5444554e-06 2.5773315e-07 0
-0.000846282 1.9194072e-06 0
-0.0035980942 -5.2447707e-08 0
0.0035753245 4.9521269e-08 0
0.00084060431 2.3168723e-06 0
4.4815197e-06 5.17664e-09 0
1.3721592e-09 4.7746487e-09 0
4.7746487e-09 4.7746487e-09 0
0 4.7746487e-09 0
-4.7746509e-09 4.7746487e-09 0
4.7746509e-09 4.7746487e-09 0
0 4.7746487e-09 0
0 4.7746487e-09 0
-4.7746509e-09 4.7746487e-09 0
4.7746509e-09 4.7746487e-09 0
-4.7746509e-09 4.7746487e-09 0
0 4.7782343e-09 0
4.7746509e-09 4.7746487e-09 0
-4.7746509e-09 4.7746487e-09 0
4.7746509e-09 4.7746487e-09 0
-4.7746509e-09 4.7746487e-09 0
4.7746509e-09 4.7746487e-09 0
0 4.7746487e-09 0
-4.7746562e-09 4.7746487e-09 0
4.7746562e-09 4.7746487e-09 0
0 4.7746487e-09 0
0 4.7746487e-09 0
-4.7746562e-09 4.7746487e-09 0
4.7746562e-09 4.7746487e-09 0
0 4.7746487e-09 0
-4.7746562e-09 4.7746487e-09 0
4.7746562e-09 4.7746487e-09 0
0 4.7746487e-09 0
0 4.7746487e-09 0
-4.7746562e-09 4.7746487e-09 0
4.7746562e-09 4.7746487e-09 0
0 4.7746487e-09 0
0 4.7746487e-09 0
-4.7746562e-09 4.7746487e-09 0
4.7746562e-09 4.7746487e-09 0
-5.9688579e-09 4.7746487e-09 0
-4.4817089e-06 4.6499693e-09 0
-0.0008405901 2.009263e-06 0
-0.0035753048 4.9717265e-08 0
0.0020383412 0 0
0.00044322401 0 0
1.926936e-06 0 0
-2.2866891e-09 0 0
4.7746487e-09 0 0
0 0 0
-4.7746509e-09 0 0
4.7746509e-09 0 0
0 0 0
0 0 0
-4.7746509e-09 0 0
4.7746509e-09 0 0
-4.7746509e-09 0 0
0 0 0
4.7746509e-09 0 0
-4.7746509e-09 0 0
4.7746509e-09 0 0
-4.7746509e-09 0 0
4.7746509e-09 0 0
0 0 0
-4.7746562e-09 0 0
4.7746562e-09 0 0
0 0 0
0 0 0
-4.7746562e-09 0 0
4.7746562e-09 0 0
0 0 0
-4.7746562e-09 0 0
4.7746562e-09 0 0
0 0 0
0 0 0
-4.7746562e-09 0 0
4.7746562e-09 0 0
0 0 0
0 0 0
-4.7746562e-09 0 0
4.7746562e-09 0 0
-2.2289794e-09 0 0
-1.9271922e-06 0 0
-0.00044321737 0 0
-0.0020383629 0 0
0.0035980993 -8.6668805e-08 0
0.00084626046 -8.6879346e-08 0
4.544213e-06 -4.7004738e-09 0
1.4245511e-09 -4.7746509e-09 0
4.7746487e-09 -4.7746509e-09 0
0 -4.7746509e-09 0
-4.7746509e-09 -4.7746509e-09 0
4.7746509e-09 -4.7746509e-09 0
0 -4.7746509e-09 0
0 -4.7746509e-09 0
-4.7746509e-09 -4.7746509e-09 0
4.7746509e-09 -4.7746509e-09 0
-4.7746509e-09 -4.7746509e-09 0
0 -4.7746509e-09 0
4.7746509e-09 -4.7746509e-09 0
-4.7746509e-09 -4.7746509e-09 0
4.7746509e-09 -4.7746509e-09 0
-4.7746509e-09 -4.7746509e-09 0
4.7746509e-09 -4.7746509e-09 0
0 -4.7746509e-09 0
-4.7746562e-09 -4.7746509e-09 0
4.7746562e-09 -4.7746509e-09 0
0 -4.7746509e-09 0
0 -4.7746509e-09 0
-4.7746562e-09 -4.7746509e-09 0
4.7746562e-09 -4.7746509e-09 0
0 -4.7746509e-09 0
-4.7746562e-09 -4.7746509e-09 0
4.7746562e-09 -4.7746509e-09 0
0 -4.7746509e-09 0
0 -4.7746509e-09 0
-4.7746562e-09 -4.7746509e-09 0
4.7746562e-09 -4.7746509e-09 0
0 -4.7746509e-09 0
0 -4.7746509e-09 0
-4.7746562e-09 -4.7746509e-09 0
4.7746562e-09 -4.7746509e-09 0
-6.0212351e-09 -4.7746509e-09 0
-4.5444058e-06 -4.700472e-09 0
-0.00084624632 -8.6879346e-08 0
-0.0035980942 -8.6668805e-08 0
0.0035980993 8.6668805e-08 0
0.00084626046 8.6879346e-08 0
4.544213e-06 4.7004738e-09 0
1.4245511e-09 4.7746509e-09 0
4.7746487e-09 4.7746509e-09 0
0 4.7746509e-09 0
-4.7746509e-09 4.7746509e-09 0
4.7746509e-09 4.7746509e-09 0
0 4.7746509e-09 0
0 4.7746509e-09 0
-4.7746509e-09 4.7746509e-09 0
4.7746509e-09 4.7746509e-09 0
-4.7746509e-09 4.7746509e-09 0
0 4.7746509e-09 0
4.7746509e-09 4.7746509e-09 0
-4.7746509e-09 4.7746509e-09 0
4.7746509e-09 4.7746509e-09 0
-4.7746509e-09 4.7746509e-09 0
4.7746509e-09 4.7746509e-09 0
0 4.7746509e-09 0
-4.7746562e-09 4.7746509e-09 0
4.7746562e-09 4.7746509e-09 0
0 4.7746509e-09 0
0 4.7746509e-09 0
-4.7746562e-09 4.7746509e-09 0
4.7746562e-09 4.7746509e-09 0
0 4.7746509e-09 0
-4.7746562e-09 4.7746509e-09 0
4.7746562e-09 4.7746509e-09 0
0 4.7746509e-09 0
0 4.7746509e-09 0
-4.7746562e-09 4.7746509e-09 0
4.7746562e-09 4.7746509e-09 0
0 4.7746509e-09 0
0 4.7746509e-09 0
-4.7746562e-09 4.7746509e-09 0
4.7746562e-09 4.7746509e-09 0
-6.0212351e-09 4.7746509e-09 0
-4.5444058e-06 4.700472e-09 0
-0.00084624632 8.6879346e-08 0
-0.0035980942 8.6668805e-08 0
0.0020383412 0 0
0.00044322401 0 0
1.926936e-06 0 0
-2.2866891e-09 0 0
4.7746487e-09 0 0
0 0 0
-4.7746509e-09 0 0
4.7746509e-09 0 0
0 0 0
0 0 0
-4.7746509e-09 0 0
4.7746509e-09 0 0
-4.7746509e-09 0 0
0 0 0
4.7746509e-09 0 0
-4.7746509e-09 0 0
4.7746509e-09 0 0
-4.7746509e-09 0 0
4.7746509e-09 0 0
0 0 0
-4.7746562e-09 0 0
4.7746562e-09 0 0
0 0 0
0 0 0
-4.7746562e-09 0 0
4.7746562e-09 0 0
0 0 0
-4.7746562e-09 0 0
4.7746562e-09 0 0
0 0 0
0 0 0
-4.7746562e-09 0 0
4.7746562e-09 0 0
0 0 0
0 0 0
-4.7746562e-09 0 0
4.7746562e-09 0 0
-2.2289794e-09 0 0
-1.9271922e-06 0 0
-0.00044321737 0 0
-0.0020383629 0 0
0.0020383412 0 0
0.00044322401 0 0
1.926936e-06 0 0
-2.2866891e-09 0 0
4.7746487e-09 0 0
0 0 0
-4.7746509e-09 0 0
4.7746509e-09 0 0
0 0 0
0 0 0
-4.7746509e-09 0 0
4.7746509e-09 0 0
-4.7746509e-09 0 0
0 0 0
4.7746509e-09 0 0
-4.7746509e-09 0 0
4.7746509e-09 0 0
-4.7746509e-09 0 0
4.7746509e-09 0 0
0 0 0
-4.7746562e-09 0 0
4.7746562e-09 0 0
0 0 0
0 0 0
-4.7746562e-09 0 0
4.7746562e-09 0 0
0 0 0
-4.7746562e-09 0 0
4.7746562e-09 0 0
0 0 0
0 0 0
-4.7746562e-09 0 0
4.7746562e-09 0 0
0 0 0
0 0 0
-4.7746562e-09 0 0
4.7746562e-09 0 0
-2.2289794e-09 0 0
-1.9271922e-06 0 0
-0.00044321737 0 0
-0.0020383629 0 0
0.0035980991 -1.583207e-07 0
0.00084626046 -1.5872008e-07 0
4.544213e-06 -4.6419926e-09 0
1.4245511e-09 -4.7746509e-09 0
4.7746487e-09 -4.7746509e-09 0
0 -4.7746509e-09 0
-4.7746509e-09 -4.7746509e-09 0
4.7746509e-09 -4.7746509e-09 0
0 -4.7746509e-09 0
0 -4.7746509e-09 0
-4.7746509e-09 -4.7746509e-09 0
4.7746509e-09 -4.7746509e-09 0
-4.7746509e-09 -4.7746509e-09 0
0 -4.7746509e-09 0
4.7746509e-09 -4.7746509e-09 0
-4.7746509e-09 -4.7746509e-09 0
4.7746509e-09 -4.7746509e-09 0
-4.7746509e-09 -4.7746509e-09 0
4.7746509e-09 -4.7746509e-09 0
0 -4.7746509e-09 0
-4.7746562e-09 -4.7746509e-09 0
4.7746562e-09 -4.7746509e-09 0
0 -4.7746509e-09 0
0 -4.7746509e-09 0
-4.7746562e-09 -4.7746509e-09 0
4.7746562e-09 -4.7746509e-09 0
0 -4.7746509e-09 0
-4.7746562e-09 -4.7746509e-09 0
4.7746562e-09 -4.7746509e-09 0
0 -4.7746509e-09 0
0 -4.7746509e-09 0
-4.7746562e-09 -4.7746509e-09 0
4.7746562e-09 -4.7746509e-09 0
0 -4.7746509e-09 0
0 -4.7746509e-09 0
-4.7746562e-09 -4.7746509e-09 0
4.7746562e-09 -4.7746509e-09 0
-6.0212351e-09 -4.7746509e-09 0
-4.5444058e-06 -4.6419908e-09 0
-0.00084624632 -1.5872008e-07 0
-0.0035980942 -1.583207e-07 0
0.0035980993 -1.5738788e-08 0
0.00084626046 -1.5731397e-08 0
4.544213e-06 4.7695119e-09 0
1.4245511e-09 4.7746509e-09 0
4.7746487e-09 4.7746509e-09 0
0 4.7746509e-09 0
-4.7746509e-09 4.7746509e-09 0
4.7746509e-09 4.7746509e-09 0
0 4.7746509e-09 0
0 4.7746509e-09 0
-4.7746509e-09 4.7746509e-09 0
4.7746509e-09 4.7746509e-09 0
-4.7746509e-09 4.7746509e-09 0
0 4.7746509e-09 0
4.7746509e-09 4.7746509e-09 0
-4.7746509e-09 4.7746509e-09 0
4.7746509e-09 4.7746509e-09 0
-4.7746509e-09 4.7746509e-09 0
4.7746509e-09 4.7746509e-09 0
0 4.7746509e-09 0
-4.7746562e-09 4.7746509e-09 0
4.7746562e-09 4.7746509e-09 0
0 4.7746509e-09 0
0 4.7746509e-09 0
-4.7746562e-09 4.7746509e-09 0
4.7746562e-09 4.7746509e-09 0
0 4.7746509e-09 0
-4.7746562e-09 4.7746509e-09 0
4.7746562e-09 4.7746509e-09 0
0 4.7746509e-09 0
0 4.7746509e-09 0
-4.7746562e-09 4.7746509e-09 0
4.7746562e-09 4.7746509e-09 0
0 4.7746509e-09 0
0 4.7746509e-09 0
-4.7746562e-09 4.7746509e-09 0
4.7746562e-09 4.7746509e-09 0
-6.0212351e-09 4.7746509e-09 0
-4.5444058e-06 4.7695119e-09 0
-0.00084624632 -1.5731397e-08 0
-0.0035980942 -1.5738788e-08 0
0.0035980993 1.6929005e-07 0
0.00084626046 1.6965157e-07 0
4.5442071e-06 -3.5618044e-08 0
1.4245505e-09 -4.7746509e-09 0
4.7746487e-09 -4.7746509e-09 0
0 -4.7746509e-09 0
-4.7746509e-09 -4.7746509e-09 0
4.7746509e-09 -4.7746509e-09 0
0 -4.7746509e-09 0
0 -4.7746509e-09 0
-4.7746509e-09 -4.7746509e-09 0
4.7746509e-09 -4.7746509e-09 0
-4.7746509e-09 -4.7746509e-09 0
0 -4.7746509e-09 0
4.7746509e-09 -4.7746509e-09 0
-4.7746509e-09 -4.7746509e-09 0
4.7746509e-09 -4.7746509e-09 0
-4.7746509e-09 -4.7746509e-09 0
4.7746509e-09 -4.7746509e-09 0
0 -4.7746509e-09 0
-4.7746562e-09 -4.7746509e-09 0
4.7746562e-09 -4.7746509e-09 0
0 -4.7746509e-09 0
0 -4.7746509e-09 0
-4.7746562e-09 -4.7746509e-09 0
4.7746562e-09 -4.7746509e-09 0
0 -4.7746509e-09 0
-4.7746562e-09 -4.7746509e-09 0
4.7746562e-09 -4.7746509e-09 0
0 -4.7746509e-09 0
0 -4.7746509e-09 0
-4.7746562e-09 -4.7746509e-09 0
4.7746562e-09 -4.7746509e-09 0
0 -4.7746509e-09 0
0 -4.7746509e-09 0
-4.7746562e-09 -4.7746509e-09 0
4.7746562e-09 -4.7746509e-09 0
-6.0212346e-09 -4.7746509e-09 0
-4.5443999e-06 -3.5618044e-08 0
-0.00084624632 1.6965157e-07 0
-0.0035980942 1.6929005e-07 0
0.0048491526 0 0